 Gaussian 09, Revision A.02,
 Gaussian 09:  EM64L-G09RevA.02 11-Jun-2009

 ------------------
 #p sp b3lyp/6-31g*
 ------------------

 ----------------------------------
 B3lyp auto opt job - neutral state
 ----------------------------------
 Symbolic Z-matrix:
 Charge =  1 Multiplicity = 2

                         Standard orientation:
 ---------------------------------------------------------------------
 Center     Atomic      Atomic             Coordinates (Angstroms)
 Number     Number       Type             X           Y           Z
 ---------------------------------------------------------------------
      1          6           0       -0.094385    0.077291    0.009279
      2          6           0       -0.965358    0.786443    1.051469
      3          6           0       -0.551952    0.440338    2.356318
      4          6           0        0.602265   -0.455890    2.266202
      5          6           0        0.878063   -0.702021    0.908739
      6          6           0       -0.874855   -0.822297   -0.954533
      7          6           0       -0.549938   -0.519870   -2.290784
      8          6           0        0.439161    0.561745   -2.300743
      9          6           0        0.673540    0.969126   -0.971461
     10          6           0       -1.787968   -1.817198   -0.643873
     11          6           0       -2.392537   -2.543434   -1.686786
     12          6           0       -2.066472   -2.241277   -3.022344
     13          6           0       -1.155945   -1.232995   -3.327688
     14          6           0        1.406323   -1.043489    3.246563
     15          6           0        2.465520   -1.864466    2.865374
     16          6           0        2.746643   -2.101315    1.505578
     17          6           0        1.934279   -1.509331    0.520375
     18          6           0       -2.063526    1.604196    0.842285
     19          6           0       -2.776302    2.093407    1.953352
     20          6           0       -2.357363    1.757920    3.250887
     21          6           0       -1.253101    0.932276    3.457420
     22          6           0        1.153930    1.149322   -3.347300
     23          6           0        2.110426    2.122410   -3.054279
     24          6           0        2.338108    2.530354   -1.732311
     25          6           0        1.595839    1.963322   -0.683506
     26          7           0       -3.345104   -3.559764   -1.407742
     27          7           0        3.825779   -2.936084    1.118635
     28          7           0       -3.936011    2.894069    1.759912
     29          7           0        3.375965    3.483602   -1.449860
     30          6           0        4.709323    2.995231   -1.380028
     31          6           0       -3.882951    4.047512    0.934487
     32          6           0        2.992352    4.692769   -0.802850
     33          6           0       -5.065721    2.683900    2.598320
     34          6           0       -3.171663   -4.452499   -0.322016
     35          6           0       -4.550886   -3.587335   -2.165212
     36          6           0        5.063756   -2.905968    1.809546
     37          6           0        3.609428   -3.894477    0.087334
     38          6           0        5.789758   -4.083692    2.022755
     39          6           0        7.019288   -4.024442    2.683027
     40          6           0        7.531482   -2.820650    3.150545
     41          6           0        6.800871   -1.640469    2.939544
     42          6           0        5.578580   -1.677930    2.266240
     43          6           0       -4.283192   -4.901680    0.415562
     44          6           0       -4.095997   -5.788757    1.469058
     45          6           0       -2.823811   -6.240387    1.831405
     46          6           0       -1.722112   -5.788168    1.095286
     47          6           0       -1.894460   -4.908406    0.022291
     48          6           0       -4.950550   -4.767097   -2.840962
     49          6           0       -6.141087   -4.774221   -3.575533
     50          6           0       -6.918275   -3.616341   -3.670999
     51          6           0       -6.519992   -2.446036   -3.029833
     52          6           0       -5.345985   -2.442888   -2.275129
     53          6           0        4.463233   -3.943743   -1.042318
     54          6           0        4.237518   -4.900990   -2.037261
     55          6           0        3.153787   -5.778842   -1.940771
     56          6           0        2.290614   -5.714508   -0.849786
     57          6           0        2.531292   -4.781298    0.159638
     58          6           0       -2.712937    4.810540    0.833245
     59          6           0       -2.700664    5.950304    0.025273
     60          6           0       -3.833433    6.346453   -0.676693
     61          6           0       -5.004875    5.580159   -0.576753
     62          6           0       -5.031365    4.432472    0.216797
     63          6           0       -5.682253    1.407972    2.660356
     64          6           0       -6.784469    1.211076    3.498353
     65          6           0       -7.299529    2.270179    4.251445
     66          6           0       -6.712338    3.530878    4.181739
     67          6           0       -5.596230    3.725303    3.366702
     68          6           0        1.889391    5.395887   -1.320537
     69          6           0        1.472057    6.582810   -0.717640
     70          6           0        2.144776    7.080023    0.407609
     71          6           0        3.236906    6.378619    0.906040
     72          6           0        3.667735    5.187866    0.317091
     73          6           0        4.976641    1.670029   -0.996239
     74          6           0        6.279800    1.176420   -0.939498
     75          6           0        7.357274    2.007484   -1.248787
     76          6           0        7.111025    3.323362   -1.641279
     77          6           0        5.808660    3.816667   -1.728398
     78          1           0        1.787741    2.275927    0.339080
     79          1           0       -2.401353    1.849596   -0.159849
     80          1           0       -2.910947    2.147236    4.099579
     81          1           0       -0.947870    0.681148    4.470147
     82          1           0        1.208998   -0.876177    4.302564
     83          1           0        3.088375   -2.332052    3.620858
     84          1           0        0.988559    0.841976   -4.376710
     85          1           0        2.701344    2.569270   -3.848456
     86          1           0       -0.916914   -1.019285   -4.366410
     87          1           0       -2.534953   -2.810757   -3.818488
     88          1           0        2.149668   -1.684441   -0.529172
     89          1           0       -2.040141   -2.038226    0.388285
     90          1           0       -5.278171   -4.555334    0.157570
     91          1           0       -4.958511   -6.131061    2.035475
     92          1           0        7.579005   -4.941932    2.846824
     93          1           0        5.394146   -5.032354    1.676595
     94          8           0       -0.426725   -6.167933    1.335563
     95          1           0        4.520674    4.651186    0.717122
     96          1           0        3.763413    6.761029    1.776602
     97          8           0        0.418885    7.336773   -1.166336
     98          1           0       -7.258547    0.237740    3.552571
     99          8           0       -5.140433    0.440646    1.868817
    100          1           0       -7.104983    4.356859    4.767621
    101          1           0       -5.118414    4.698757    3.312294
    102          8           0       -6.070321    6.031648   -1.306384
    103          1           0       -3.841992    7.237353   -1.296289
    104          1           0       -1.794400    6.546691   -0.036519
    105          1           0       -1.828411    4.524198    1.390971
    106          1           0        4.148612    1.019692   -0.736468
    107          1           0        6.440554    0.145021   -0.636131
    108          1           0        8.377050    1.636754   -1.195316
    109          1           0        7.922059    3.997648   -1.900641
    110          8           0        5.645061    5.132857   -2.100726
    111          1           0        4.888916   -4.952543   -2.902263
    112          8           0        5.465986   -3.020937   -1.079771
    113          1           0        2.989015   -6.506187   -2.731244
    114          1           0        1.439958   -6.383187   -0.763980
    115          1           0        1.864726   -4.727247    1.014663
    116          1           0       -5.023146   -1.541258   -1.762686
    117          1           0       -7.120013   -1.543837   -3.103076
    118          1           0       -7.834187   -3.638599   -4.255164
    119          1           0       -6.457625   -5.672989   -4.092436
    120          8           0       -4.113733   -5.834071   -2.724479
    121          1           0        8.480338   -2.764174    3.673729
    122          1           0       -2.707853   -6.923563    2.664106
    123          1           0       -8.162892    2.099169    4.888627
    124          1           0        1.804536    8.006591    0.858164
    125          6           0        5.122009    5.337529   -3.412370
    126          6           0       -5.647879   -0.880684    1.968952
    127          6           0       -4.478009   -7.054119   -3.348628
    128          6           0        6.375366   -3.055977   -2.167384
    129          1           0        5.771336    4.876113   -4.168904
    130          1           0        5.098584    6.419025   -3.564275
    131          1           0        4.106854    4.936714   -3.509585
    132          1           0       -5.039867   -1.487406    1.295774
    133          1           0       -6.699487   -0.935257    1.656453
    134          1           0       -5.554817   -1.270613    2.990784
    135          1           0       -3.678120   -7.757741   -3.112106
    136          1           0       -4.554172   -6.943624   -4.438612
    137          1           0       -5.428533   -7.439944   -2.957473
    138          1           0        7.083970   -2.245498   -1.988933
    139          1           0        5.866438   -2.886382   -3.125521
    140          1           0        6.916847   -4.010071   -2.209191
    141          1           0        5.019462   -0.771436    2.073660
    142          8           0        7.376753   -0.496979    3.416732
    143          6           0        6.693751    0.733090    3.225277
    144          1           0        5.707469    0.726471    3.708002
    145          1           0        6.571834    0.967835    2.159922
    146          1           0        7.318541    1.496505    3.693148
    147          6           0       -0.178370   -7.074555    2.398674
    148          1           0        0.900436   -7.239945    2.403939
    149          1           0       -0.692485   -8.031882    2.241012
    150          1           0       -0.485889   -6.655692    3.365733
    151          1           0       -1.020765   -4.595096   -0.537629
    152          1           0        1.377772    4.998964   -2.188238
    153          6           0       -0.174933    6.984194   -2.407737
    154          1           0        0.570633    6.965362   -3.213496
    155          1           0       -0.914495    7.759855   -2.616087
    156          1           0       -0.680918    6.012209   -2.355845
    157          6           0       -7.287139    5.308152   -1.236087
    158          1           0       -5.922626    3.822869    0.295310
    159          1           0       -7.992590    5.845502   -1.873164
    160          1           0       -7.678980    5.271885   -0.210826
    161          1           0       -7.170774    4.282097   -1.610523
 ---------------------------------------------------------------------

 SCF Done:  E(UB3LYP) =  -3948.08931235     A.U. after   23 cycles

 Alpha virt. eigenvalues --    0.02856   0.03084   0.03149   0.03233   0.03555
 Alpha virt. eigenvalues --    0.03571   0.03907   0.04026   0.04410   0.04576
 Alpha virt. eigenvalues --    0.04608   0.04898   0.05216   0.05574   0.05716

  Beta  occ. eigenvalues --  -19.25613 -19.25501 -19.24574 -19.24433 -19.24235
  Beta  occ. eigenvalues --  -19.24163 -19.23547 -19.21673 -14.46294 -14.45840
  Beta  occ. eigenvalues --  -14.43817 -14.42867 -10.32923 -10.32894 -10.32233
  Beta  occ. eigenvalues --  -10.31824 -10.31807 -10.31807 -10.31727 -10.31340
  Beta  occ. eigenvalues --  -10.31188 -10.30882 -10.30866 -10.30830 -10.30615
  Beta  occ. eigenvalues --  -10.30551 -10.30502 -10.30392 -10.30385 -10.30132
  Beta  occ. eigenvalues --  -10.30032 -10.30016 -10.29997 -10.29918 -10.29831
  Beta  occ. eigenvalues --  -10.29767 -10.29528 -10.29309 -10.29187 -10.28896
  Beta  occ. eigenvalues --  -10.28488 -10.28429 -10.28341 -10.28325 -10.28255
  Beta  occ. eigenvalues --  -10.28052 -10.27859 -10.27848 -10.27589 -10.27552
  Beta  occ. eigenvalues --  -10.27511 -10.27442 -10.27425 -10.27274 -10.26898
  Beta  occ. eigenvalues --  -10.26806 -10.26727 -10.26701 -10.26665 -10.26632
  Beta  occ. eigenvalues --  -10.26624 -10.26587 -10.26585 -10.26428 -10.26426
  Beta  occ. eigenvalues --  -10.26363 -10.26322 -10.26112 -10.25898 -10.25894
  Beta  occ. eigenvalues --  -10.25856 -10.25827 -10.25773 -10.25671 -10.25658
  Beta  occ. eigenvalues --  -10.25620 -10.25578 -10.25527 -10.25447 -10.25307
  Beta  occ. eigenvalues --  -10.25290 -10.25093 -10.25075 -10.24930 -10.24886
  Beta  occ. eigenvalues --  -10.24831 -10.24650 -10.24613 -10.24558 -10.24552
  Beta  occ. eigenvalues --  -10.24232 -10.23735 -10.23648  -1.14323  -1.14162
  Beta  occ. eigenvalues --   -1.13205  -1.12895  -1.12744  -1.12666  -1.11882
  Beta  occ. eigenvalues --   -1.10407  -1.04947  -1.04678  -1.03316  -1.02452
  Beta  occ. eigenvalues --   -0.98425  -0.95303  -0.93350  -0.92735  -0.92673
  Beta  occ. eigenvalues --   -0.92110  -0.91859  -0.91529  -0.91063  -0.90728
  Beta  occ. eigenvalues --   -0.90435  -0.89425  -0.88508  -0.86365  -0.84974
  Beta  occ. eigenvalues --   -0.83908  -0.83716  -0.83171  -0.83000  -0.82675
  Beta  occ. eigenvalues --   -0.82512  -0.82382  -0.82213  -0.82063  -0.81889
  Beta  occ. eigenvalues --   -0.81768  -0.81706  -0.81611  -0.81511  -0.80997
  Beta  occ. eigenvalues --   -0.80612  -0.80179  -0.80149  -0.78470  -0.78421
  Beta  occ. eigenvalues --   -0.77072  -0.76985  -0.76797  -0.76544  -0.76010
  Beta  occ. eigenvalues --   -0.75979  -0.75581  -0.75499  -0.74896  -0.73833
  Beta  occ. eigenvalues --   -0.72702  -0.71543  -0.70400  -0.70281  -0.69613
  Beta  occ. eigenvalues --   -0.68876  -0.68810  -0.68085  -0.67870  -0.67406
  Beta  occ. eigenvalues --   -0.67205  -0.67053  -0.66871  -0.66598  -0.66242
  Beta  occ. eigenvalues --   -0.66204  -0.66036  -0.65611  -0.65347  -0.64785
  Beta  occ. eigenvalues --   -0.64643  -0.64054  -0.63522  -0.62959  -0.61664
  Beta  occ. eigenvalues --   -0.61426  -0.61289  -0.60975  -0.60856  -0.59960
  Beta  occ. eigenvalues --   -0.59777  -0.59637  -0.58988  -0.58665  -0.58405
  Beta  occ. eigenvalues --   -0.57744  -0.57258  -0.57019  -0.56614  -0.56279
  Beta  occ. eigenvalues --   -0.56207  -0.56111  -0.55726  -0.55567  -0.55321
  Beta  occ. eigenvalues --   -0.55220  -0.54985  -0.54705  -0.54584  -0.54373
  Beta  occ. eigenvalues --   -0.54314  -0.54067  -0.53969  -0.53899  -0.53832
  Beta  occ. eigenvalues --   -0.53686  -0.53468  -0.53240  -0.53176  -0.53039
  Beta  occ. eigenvalues --   -0.52950  -0.52853  -0.52823  -0.52709  -0.52594
  Beta  occ. eigenvalues --   -0.52437  -0.52185  -0.52036  -0.51935  -0.51875
  Beta  occ. eigenvalues --   -0.51427  -0.51277  -0.51226  -0.51075  -0.51007
  Beta  occ. eigenvalues --   -0.50816  -0.50731  -0.50456  -0.50377  -0.49893
  Beta  occ. eigenvalues --   -0.49825  -0.49330  -0.49174  -0.49159  -0.48991
  Beta  occ. eigenvalues --   -0.48922  -0.48708  -0.48292  -0.48249  -0.48044
  Beta  occ. eigenvalues --   -0.47990  -0.47838  -0.47598  -0.47462  -0.46870
  Beta  occ. eigenvalues --   -0.45822  -0.45700  -0.45561  -0.45399  -0.45296
  Beta  occ. eigenvalues --   -0.45115  -0.45014  -0.44854  -0.44745  -0.44669
  Beta  occ. eigenvalues --   -0.44580  -0.44489  -0.44378  -0.44309  -0.44248
  Beta  occ. eigenvalues --   -0.44202  -0.43911  -0.43669  -0.43561  -0.43450
  Beta  occ. eigenvalues --   -0.43340  -0.43253  -0.43026  -0.42988  -0.42749
  Beta  occ. eigenvalues --   -0.42719  -0.42565  -0.42396  -0.42281  -0.42130
  Beta  occ. eigenvalues --   -0.41888  -0.41475  -0.41274  -0.40721  -0.40540
  Beta  occ. eigenvalues --   -0.40505  -0.40209  -0.39915  -0.39831  -0.39758
  Beta  occ. eigenvalues --   -0.39561  -0.39527  -0.39495  -0.39383  -0.39125
  Beta  occ. eigenvalues --   -0.39040  -0.38873  -0.38363  -0.37956  -0.37739
  Beta  occ. eigenvalues --   -0.37094  -0.36431  -0.35468  -0.34870  -0.34673
  Beta  occ. eigenvalues --   -0.34622  -0.33397  -0.33158  -0.32980  -0.32721
  Beta  occ. eigenvalues --   -0.32563  -0.32097  -0.31757  -0.31335  -0.30950
  Beta  occ. eigenvalues --   -0.30249  -0.30122  -0.29714  -0.29646  -0.29075
  Beta  occ. eigenvalues --   -0.28976  -0.28768  -0.28547  -0.27892  -0.25802
  Beta  occ. eigenvalues --   -0.25274  -0.24418
  Beta virt. eigenvalues --   -0.22874  -0.11842  -0.11007  -0.10073  -0.09388
  Beta virt. eigenvalues --   -0.08735  -0.08560  -0.08214  -0.07792  -0.07129
  Beta virt. eigenvalues --   -0.06929  -0.06790  -0.06525  -0.06198  -0.05828

 Mulliken atomic charges:
              1
     1  C   -0.272470
     2  C    0.118880
     3  C    0.077192
     4  C    0.081631
     5  C    0.129319
     6  C    0.123192
     7  C    0.074630
     8  C    0.079884
     9  C    0.116696
    10  C   -0.239099
    11  C    0.290072
    12  C   -0.165255
    13  C   -0.200107
    14  C   -0.196562
    15  C   -0.170366
    16  C    0.291266
    17  C   -0.227837
    18  C   -0.208459
    19  C    0.315295
    20  C   -0.174230
    21  C   -0.196884
    22  C   -0.202185
    23  C   -0.155397
    24  C    0.233021
    25  C   -0.218955
    26  N   -0.645814
    27  N   -0.623019
    28  N   -0.620825
    29  N   -0.654780
    30  C    0.274232
    31  C    0.287143
    32  C    0.307483
    33  C    0.195879
    34  C    0.338602
    35  C    0.189738
    36  C    0.326640
    37  C    0.193354
    38  C   -0.178074
    39  C   -0.142388
    40  C   -0.161022
    41  C    0.381627
    42  C   -0.247881
    43  C   -0.183988
    44  C   -0.147765
    45  C   -0.194593
    46  C    0.376379
    47  C   -0.232679
    48  C    0.377473
    49  C   -0.208002
    50  C   -0.128562
    51  C   -0.143576
    52  C   -0.169849
    53  C    0.382416
    54  C   -0.206633
    55  C   -0.124749
    56  C   -0.152719
    57  C   -0.172835
    58  C   -0.182492
    59  C   -0.159790
    60  C   -0.168775
    61  C    0.384450
    62  C   -0.236313
    63  C    0.373297
    64  C   -0.206912
    65  C   -0.125923
    66  C   -0.143290
    67  C   -0.165805
    68  C   -0.246838
    69  C    0.377217
    70  C   -0.169994
    71  C   -0.145872
    72  C   -0.167108
    73  C   -0.198828
    74  C   -0.155499
    75  C   -0.140037
    76  C   -0.170449
    77  C    0.331851
    78  H    0.151405
    79  H    0.162943
    80  H    0.162293
    81  H    0.151495
    82  H    0.152485
    83  H    0.165611
    84  H    0.146263
    85  H    0.150095
    86  H    0.145639
    87  H    0.157060
    88  H    0.166243
    89  H    0.153966
    90  H    0.141383
    91  H    0.140573
    92  H    0.150472
    93  H    0.149831
    94  O   -0.517656
    95  H    0.138434
    96  H    0.140973
    97  O   -0.516351
    98  H    0.150229
    99  O   -0.509484
   100  H    0.150677
   101  H    0.159692
   102  O   -0.503446
   103  H    0.153712
   104  H    0.174460
   105  H    0.149998
   106  H    0.143840
   107  H    0.143767
   108  H    0.140199
   109  H    0.149949
   110  O   -0.517680
   111  H    0.151784
   112  O   -0.507811
   113  H    0.149610
   114  H    0.157599
   115  H    0.162436
   116  H    0.143185
   117  H    0.137067
   118  H    0.145682
   119  H    0.148356
   120  O   -0.504503
   121  H    0.158055
   122  H    0.140035
   123  H    0.152356
   124  H    0.145391
   125  C   -0.213762
   126  C   -0.230442
   127  C   -0.222420
   128  C   -0.225844
   129  H    0.145798
   130  H    0.172509
   131  H    0.150369
   132  H    0.182126
   133  H    0.161120
   134  H    0.162623
   135  H    0.179317
   136  H    0.158700
   137  H    0.161122
   138  H    0.181914
   139  H    0.160724
   140  H    0.165310
   141  H    0.153659
   142  O   -0.503781
   143  C   -0.228522
   144  H    0.150539
   145  H    0.165012
   146  H    0.181782
   147  C   -0.222004
   148  H    0.173037
   149  H    0.162426
   150  H    0.157005
   151  H    0.153473
   152  H    0.138945
   153  C   -0.223027
   154  H    0.158895
   155  H    0.175462
   156  H    0.155988
   157  C   -0.220956
   158  H    0.152609
   159  H    0.182677
   160  H    0.158747
   161  H    0.153182
 Sum of Mulliken atomic charges =   1.00000

 Dipole moment (field-independent basis, Debye):
    X=             -4.4814    Y=             -6.1001    Z=             -0.0643  Tot=              7.5695
 Quadrupole moment (field-independent basis, Debye-Ang):
   XX=           -373.1092   YY=           -418.1464   ZZ=           -453.9951
   XY=            -13.1580   XZ=            -13.0795   YZ=              3.5945

 Normal termination of Gaussian 09 at Sat Mar 28 20:01:01 2015.
