 Gaussian 09, Revision A.02,
 Gaussian 09:  EM64L-G09RevA.02 11-Jun-2009

 ------------------
 #p sp b3lyp/6-31g*
 ------------------

 ----------------------------------
 B3lyp auto opt job - neutral state
 ----------------------------------
 Symbolic Z-matrix:
 Charge =  0 Multiplicity = 1

                         Standard orientation:
 ---------------------------------------------------------------------
 Center     Atomic      Atomic             Coordinates (Angstroms)
 Number     Number       Type             X           Y           Z
 ---------------------------------------------------------------------
      1          6           0       -0.094385    0.077291    0.009279
      2          6           0       -0.965358    0.786443    1.051469
      3          6           0       -0.551952    0.440338    2.356318
      4          6           0        0.602265   -0.455890    2.266202
      5          6           0        0.878063   -0.702021    0.908739
      6          6           0       -0.874855   -0.822297   -0.954533
      7          6           0       -0.549938   -0.519870   -2.290784
      8          6           0        0.439161    0.561745   -2.300743
      9          6           0        0.673540    0.969126   -0.971461
     10          6           0       -1.787968   -1.817198   -0.643873
     11          6           0       -2.392537   -2.543434   -1.686786
     12          6           0       -2.066472   -2.241277   -3.022344
     13          6           0       -1.155945   -1.232995   -3.327688
     14          6           0        1.406323   -1.043489    3.246563
     15          6           0        2.465520   -1.864466    2.865374
     16          6           0        2.746643   -2.101315    1.505578
     17          6           0        1.934279   -1.509331    0.520375
     18          6           0       -2.063526    1.604196    0.842285
     19          6           0       -2.776302    2.093407    1.953352
     20          6           0       -2.357363    1.757920    3.250887
     21          6           0       -1.253101    0.932276    3.457420
     22          6           0        1.153930    1.149322   -3.347300
     23          6           0        2.110426    2.122410   -3.054279
     24          6           0        2.338108    2.530354   -1.732311
     25          6           0        1.595839    1.963322   -0.683506
     26          7           0       -3.345104   -3.559764   -1.407742
     27          7           0        3.825779   -2.936084    1.118635
     28          7           0       -3.936011    2.894069    1.759912
     29          7           0        3.375965    3.483602   -1.449860
     30          6           0        4.709323    2.995231   -1.380028
     31          6           0       -3.882951    4.047512    0.934487
     32          6           0        2.992352    4.692769   -0.802850
     33          6           0       -5.065721    2.683900    2.598320
     34          6           0       -3.171663   -4.452499   -0.322016
     35          6           0       -4.550886   -3.587335   -2.165212
     36          6           0        5.063756   -2.905968    1.809546
     37          6           0        3.609428   -3.894477    0.087334
     38          6           0        5.789758   -4.083692    2.022755
     39          6           0        7.019288   -4.024442    2.683027
     40          6           0        7.531482   -2.820650    3.150545
     41          6           0        6.800871   -1.640469    2.939544
     42          6           0        5.578580   -1.677930    2.266240
     43          6           0       -4.283192   -4.901680    0.415562
     44          6           0       -4.095997   -5.788757    1.469058
     45          6           0       -2.823811   -6.240387    1.831405
     46          6           0       -1.722112   -5.788168    1.095286
     47          6           0       -1.894460   -4.908406    0.022291
     48          6           0       -4.950550   -4.767097   -2.840962
     49          6           0       -6.141087   -4.774221   -3.575533
     50          6           0       -6.918275   -3.616341   -3.670999
     51          6           0       -6.519992   -2.446036   -3.029833
     52          6           0       -5.345985   -2.442888   -2.275129
     53          6           0        4.463233   -3.943743   -1.042318
     54          6           0        4.237518   -4.900990   -2.037261
     55          6           0        3.153787   -5.778842   -1.940771
     56          6           0        2.290614   -5.714508   -0.849786
     57          6           0        2.531292   -4.781298    0.159638
     58          6           0       -2.712937    4.810540    0.833245
     59          6           0       -2.700664    5.950304    0.025273
     60          6           0       -3.833433    6.346453   -0.676693
     61          6           0       -5.004875    5.580159   -0.576753
     62          6           0       -5.031365    4.432472    0.216797
     63          6           0       -5.682253    1.407972    2.660356
     64          6           0       -6.784469    1.211076    3.498353
     65          6           0       -7.299529    2.270179    4.251445
     66          6           0       -6.712338    3.530878    4.181739
     67          6           0       -5.596230    3.725303    3.366702
     68          6           0        1.889391    5.395887   -1.320537
     69          6           0        1.472057    6.582810   -0.717640
     70          6           0        2.144776    7.080023    0.407609
     71          6           0        3.236906    6.378619    0.906040
     72          6           0        3.667735    5.187866    0.317091
     73          6           0        4.976641    1.670029   -0.996239
     74          6           0        6.279800    1.176420   -0.939498
     75          6           0        7.357274    2.007484   -1.248787
     76          6           0        7.111025    3.323362   -1.641279
     77          6           0        5.808660    3.816667   -1.728398
     78          1           0        1.787741    2.275927    0.339080
     79          1           0       -2.401353    1.849596   -0.159849
     80          1           0       -2.910947    2.147236    4.099579
     81          1           0       -0.947870    0.681148    4.470147
     82          1           0        1.208998   -0.876177    4.302564
     83          1           0        3.088375   -2.332052    3.620858
     84          1           0        0.988559    0.841976   -4.376710
     85          1           0        2.701344    2.569270   -3.848456
     86          1           0       -0.916914   -1.019285   -4.366410
     87          1           0       -2.534953   -2.810757   -3.818488
     88          1           0        2.149668   -1.684441   -0.529172
     89          1           0       -2.040141   -2.038226    0.388285
     90          1           0       -5.278171   -4.555334    0.157570
     91          1           0       -4.958511   -6.131061    2.035475
     92          1           0        7.579005   -4.941932    2.846824
     93          1           0        5.394146   -5.032354    1.676595
     94          8           0       -0.426725   -6.167933    1.335563
     95          1           0        4.520674    4.651186    0.717122
     96          1           0        3.763413    6.761029    1.776602
     97          8           0        0.418885    7.336773   -1.166336
     98          1           0       -7.258547    0.237740    3.552571
     99          8           0       -5.140433    0.440646    1.868817
    100          1           0       -7.104983    4.356859    4.767621
    101          1           0       -5.118414    4.698757    3.312294
    102          8           0       -6.070321    6.031648   -1.306384
    103          1           0       -3.841992    7.237353   -1.296289
    104          1           0       -1.794400    6.546691   -0.036519
    105          1           0       -1.828411    4.524198    1.390971
    106          1           0        4.148612    1.019692   -0.736468
    107          1           0        6.440554    0.145021   -0.636131
    108          1           0        8.377050    1.636754   -1.195316
    109          1           0        7.922059    3.997648   -1.900641
    110          8           0        5.645061    5.132857   -2.100726
    111          1           0        4.888916   -4.952543   -2.902263
    112          8           0        5.465986   -3.020937   -1.079771
    113          1           0        2.989015   -6.506187   -2.731244
    114          1           0        1.439958   -6.383187   -0.763980
    115          1           0        1.864726   -4.727247    1.014663
    116          1           0       -5.023146   -1.541258   -1.762686
    117          1           0       -7.120013   -1.543837   -3.103076
    118          1           0       -7.834187   -3.638599   -4.255164
    119          1           0       -6.457625   -5.672989   -4.092436
    120          8           0       -4.113733   -5.834071   -2.724479
    121          1           0        8.480338   -2.764174    3.673729
    122          1           0       -2.707853   -6.923563    2.664106
    123          1           0       -8.162892    2.099169    4.888627
    124          1           0        1.804536    8.006591    0.858164
    125          6           0        5.122009    5.337529   -3.412370
    126          6           0       -5.647879   -0.880684    1.968952
    127          6           0       -4.478009   -7.054119   -3.348628
    128          6           0        6.375366   -3.055977   -2.167384
    129          1           0        5.771336    4.876113   -4.168904
    130          1           0        5.098584    6.419025   -3.564275
    131          1           0        4.106854    4.936714   -3.509585
    132          1           0       -5.039867   -1.487406    1.295774
    133          1           0       -6.699487   -0.935257    1.656453
    134          1           0       -5.554817   -1.270613    2.990784
    135          1           0       -3.678120   -7.757741   -3.112106
    136          1           0       -4.554172   -6.943624   -4.438612
    137          1           0       -5.428533   -7.439944   -2.957473
    138          1           0        7.083970   -2.245498   -1.988933
    139          1           0        5.866438   -2.886382   -3.125521
    140          1           0        6.916847   -4.010071   -2.209191
    141          1           0        5.019462   -0.771436    2.073660
    142          8           0        7.376753   -0.496979    3.416732
    143          6           0        6.693751    0.733090    3.225277
    144          1           0        5.707469    0.726471    3.708002
    145          1           0        6.571834    0.967835    2.159922
    146          1           0        7.318541    1.496505    3.693148
    147          6           0       -0.178370   -7.074555    2.398674
    148          1           0        0.900436   -7.239945    2.403939
    149          1           0       -0.692485   -8.031882    2.241012
    150          1           0       -0.485889   -6.655692    3.365733
    151          1           0       -1.020765   -4.595096   -0.537629
    152          1           0        1.377772    4.998964   -2.188238
    153          6           0       -0.174933    6.984194   -2.407737
    154          1           0        0.570633    6.965362   -3.213496
    155          1           0       -0.914495    7.759855   -2.616087
    156          1           0       -0.680918    6.012209   -2.355845
    157          6           0       -7.287139    5.308152   -1.236087
    158          1           0       -5.922626    3.822869    0.295310
    159          1           0       -7.992590    5.845502   -1.873164
    160          1           0       -7.678980    5.271885   -0.210826
    161          1           0       -7.170774    4.282097   -1.610523
 ---------------------------------------------------------------------

 SCF Done:  E(RB3LYP) =  -3948.28634825     A.U. after   16 cycles

 The electronic state is 1-A.
 Alpha  occ. eigenvalues --  -19.18181 -19.17707 -19.17507 -19.17429 -19.16920
 Alpha  occ. eigenvalues --  -19.16840 -19.16419 -19.15281 -14.35989 -14.35247
 Alpha  occ. eigenvalues --  -14.35243 -14.35202 -10.25186 -10.24505 -10.24442
 Alpha  occ. eigenvalues --  -10.24348 -10.24294 -10.23939 -10.23706 -10.23699
 Alpha  occ. eigenvalues --  -10.23657 -10.23583 -10.23422 -10.23372 -10.23173
 Alpha  occ. eigenvalues --  -10.23108 -10.22648 -10.22622 -10.22581 -10.22549
 Alpha  occ. eigenvalues --  -10.22388 -10.22125 -10.22119 -10.22089 -10.21970
 Alpha  occ. eigenvalues --  -10.21939 -10.21855 -10.21788 -10.21787 -10.21612
 Alpha  occ. eigenvalues --  -10.21000 -10.19325 -10.19287 -10.19191 -10.19184
 Alpha  occ. eigenvalues --  -10.19148 -10.19116 -10.19027 -10.18879 -10.18834
 Alpha  occ. eigenvalues --  -10.18806 -10.18794 -10.18710 -10.18704 -10.18680
 Alpha  occ. eigenvalues --  -10.18644 -10.18629 -10.18541 -10.18450 -10.18410
 Alpha  occ. eigenvalues --  -10.18402 -10.18359 -10.18323 -10.18284 -10.18282
 Alpha  occ. eigenvalues --  -10.18224 -10.18207 -10.18065 -10.18047 -10.17986
 Alpha  occ. eigenvalues --  -10.17974 -10.17952 -10.17927 -10.17906 -10.17905
 Alpha  occ. eigenvalues --  -10.17888 -10.17874 -10.17851 -10.17849 -10.17810
 Alpha  occ. eigenvalues --  -10.17640 -10.17606 -10.17483 -10.17422 -10.17318
 Alpha  occ. eigenvalues --  -10.17279 -10.17023 -10.16852 -10.16839 -10.16788
 Alpha  occ. eigenvalues --  -10.16732 -10.16660 -10.16634  -1.06967  -1.06236
 Alpha  occ. eigenvalues --   -1.06120  -1.06043  -1.05382  -1.05261  -1.04942
 Alpha  occ. eigenvalues --   -1.03984  -0.95860  -0.95140  -0.95124  -0.95051
 Alpha  occ. eigenvalues --   -0.89488  -0.86497  -0.85207  -0.84515  -0.84472
 Alpha  occ. eigenvalues --   -0.84258  -0.84170  -0.83875  -0.83371  -0.82926
 Alpha  occ. eigenvalues --   -0.82313  -0.81937  -0.79874  -0.77702  -0.76525
 Alpha  occ. eigenvalues --   -0.75847  -0.75604  -0.75300  -0.75174  -0.75167
 Alpha  occ. eigenvalues --   -0.74892  -0.74590  -0.74492  -0.74244  -0.74013
 Alpha  occ. eigenvalues --   -0.73949  -0.73843  -0.73794  -0.73541  -0.73392
 Alpha  occ. eigenvalues --   -0.73129  -0.72951  -0.71665  -0.71536  -0.70203
 Alpha  occ. eigenvalues --   -0.69911  -0.69247  -0.69165  -0.69067  -0.68826
 Alpha  occ. eigenvalues --   -0.68221  -0.68144  -0.67902  -0.67244  -0.67234
 Alpha  occ. eigenvalues --   -0.63983  -0.63319  -0.62282  -0.61839  -0.61566
 Alpha  occ. eigenvalues --   -0.61100  -0.60900  -0.60659  -0.60023  -0.59966
 Alpha  occ. eigenvalues --   -0.59564  -0.58971  -0.58859  -0.58800  -0.58382
 Alpha  occ. eigenvalues --   -0.58324  -0.58125  -0.57893  -0.57530  -0.57149
 Alpha  occ. eigenvalues --   -0.56574  -0.56150  -0.55893  -0.55276  -0.54225
 Alpha  occ. eigenvalues --   -0.53449  -0.53287  -0.53119  -0.52926  -0.52710
 Alpha  occ. eigenvalues --   -0.52316  -0.51560  -0.51265  -0.50582  -0.50392
 Alpha  occ. eigenvalues --   -0.50016  -0.49266  -0.48987  -0.48866  -0.48786
 Alpha  occ. eigenvalues --   -0.48341  -0.48125  -0.48007  -0.47932  -0.47674
 Alpha  occ. eigenvalues --   -0.47575  -0.47464  -0.47143  -0.47127  -0.47084
 Alpha  occ. eigenvalues --   -0.46934  -0.46853  -0.46724  -0.46620  -0.46460
 Alpha  occ. eigenvalues --   -0.46370  -0.46347  -0.46061  -0.46002  -0.45984
 Alpha  occ. eigenvalues --   -0.45578  -0.45507  -0.45381  -0.45183  -0.44814
 Alpha  occ. eigenvalues --   -0.44725  -0.44535  -0.44505  -0.44153  -0.43987
 Alpha  occ. eigenvalues --   -0.43558  -0.43347  -0.43338  -0.43196  -0.43145
 Alpha  occ. eigenvalues --   -0.42792  -0.42694  -0.42525  -0.42327  -0.42174
 Alpha  occ. eigenvalues --   -0.42114  -0.42020  -0.41916  -0.41710  -0.41614
 Alpha  occ. eigenvalues --   -0.41419  -0.41203  -0.41131  -0.40850  -0.40396
 Alpha  occ. eigenvalues --   -0.40296  -0.40064  -0.39773  -0.39271  -0.38973
 Alpha  occ. eigenvalues --   -0.38313  -0.38038  -0.37699  -0.37679  -0.37658
 Alpha  occ. eigenvalues --   -0.37381  -0.37349  -0.37096  -0.36981  -0.36849
 Alpha  occ. eigenvalues --   -0.36821  -0.36760  -0.36632  -0.36486  -0.36396
 Alpha  occ. eigenvalues --   -0.36307  -0.36206  -0.36080  -0.35973  -0.35919
 Alpha  occ. eigenvalues --   -0.35813  -0.35559  -0.35520  -0.35377  -0.35149
 Alpha  occ. eigenvalues --   -0.35071  -0.34697  -0.34643  -0.34481  -0.34375
 Alpha  occ. eigenvalues --   -0.34027  -0.33653  -0.33325  -0.33202  -0.32897
 Alpha  occ. eigenvalues --   -0.32686  -0.32659  -0.32606  -0.32478  -0.32331
 Alpha  occ. eigenvalues --   -0.32092  -0.31940  -0.31873  -0.31787  -0.31661
 Alpha  occ. eigenvalues --   -0.31602  -0.31580  -0.31092  -0.30886  -0.29787
 Alpha  occ. eigenvalues --   -0.29225  -0.28552  -0.28003  -0.27442  -0.26538
 Alpha  occ. eigenvalues --   -0.26255  -0.26091  -0.25389  -0.25132  -0.24657
 Alpha  occ. eigenvalues --   -0.24469  -0.23998  -0.23838  -0.23606  -0.23048
 Alpha  occ. eigenvalues --   -0.22838  -0.22589  -0.22175  -0.22061  -0.21609
 Alpha  occ. eigenvalues --   -0.21528  -0.21121  -0.21069  -0.20634  -0.18472
 Alpha  occ. eigenvalues --   -0.17972  -0.17414  -0.16331
 Alpha virt. eigenvalues --   -0.03253  -0.02578  -0.01522  -0.01178  -0.00921
 Alpha virt. eigenvalues --   -0.00413  -0.00230  -0.00110   0.00096   0.00715
 Alpha virt. eigenvalues --    0.01039   0.01237   0.01317   0.01676   0.01793

 Mulliken atomic charges:
              1
     1  C   -0.270988
     2  C    0.112619
     3  C    0.073289
     4  C    0.075874
     5  C    0.123442
     6  C    0.127035
     7  C    0.071880
     8  C    0.078634
     9  C    0.119568
    10  C   -0.238984
    11  C    0.288051
    12  C   -0.170103
    13  C   -0.201713
    14  C   -0.205288
    15  C   -0.180263
    16  C    0.290790
    17  C   -0.240953
    18  C   -0.218192
    19  C    0.313444
    20  C   -0.184029
    21  C   -0.206494
    22  C   -0.204223
    23  C   -0.158839
    24  C    0.231756
    25  C   -0.218248
    26  N   -0.654495
    27  N   -0.651765
    28  N   -0.646753
    29  N   -0.662835
    30  C    0.275734
    31  C    0.293127
    32  C    0.310147
    33  C    0.206188
    34  C    0.340397
    35  C    0.195114
    36  C    0.332930
    37  C    0.203053
    38  C   -0.189305
    39  C   -0.142226
    40  C   -0.176442
    41  C    0.376214
    42  C   -0.255559
    43  C   -0.185515
    44  C   -0.147671
    45  C   -0.198317
    46  C    0.374845
    47  C   -0.233437
    48  C    0.372428
    49  C   -0.209722
    50  C   -0.132229
    51  C   -0.144608
    52  C   -0.170828
    53  C    0.372063
    54  C   -0.209027
    55  C   -0.132260
    56  C   -0.154156
    57  C   -0.177657
    58  C   -0.190846
    59  C   -0.161517
    60  C   -0.183013
    61  C    0.378138
    62  C   -0.244992
    63  C    0.364820
    64  C   -0.209205
    65  C   -0.134200
    66  C   -0.145163
    67  C   -0.171172
    68  C   -0.247176
    69  C    0.378016
    70  C   -0.173519
    71  C   -0.145359
    72  C   -0.168525
    73  C   -0.201931
    74  C   -0.157411
    75  C   -0.143250
    76  C   -0.172568
    77  C    0.326067
    78  H    0.151672
    79  H    0.146029
    80  H    0.138889
    81  H    0.127723
    82  H    0.128561
    83  H    0.142502
    84  H    0.130725
    85  H    0.132896
    86  H    0.129548
    87  H    0.139786
    88  H    0.149865
    89  H    0.154213
    90  H    0.132632
    91  H    0.125561
    92  H    0.123925
    93  H    0.131787
    94  O   -0.512443
    95  H    0.133752
    96  H    0.127743
    97  O   -0.519380
    98  H    0.132270
    99  O   -0.504372
   100  H    0.127118
   101  H    0.146862
   102  O   -0.512513
   103  H    0.127023
   104  H    0.158543
   105  H    0.142576
   106  H    0.156701
   107  H    0.149705
   108  H    0.126858
   109  H    0.133331
   110  O   -0.520915
   111  H    0.131021
   112  O   -0.505594
   113  H    0.124885
   114  H    0.140030
   115  H    0.155433
   116  H    0.150430
   117  H    0.129253
   118  H    0.129432
   119  H    0.134127
   120  O   -0.501451
   121  H    0.128186
   122  H    0.125945
   123  H    0.126523
   124  H    0.131232
   125  C   -0.208831
   126  C   -0.222533
   127  C   -0.215319
   128  C   -0.214968
   129  H    0.136780
   130  H    0.161525
   131  H    0.155894
   132  H    0.181628
   133  H    0.147561
   134  H    0.154441
   135  H    0.175090
   136  H    0.150863
   137  H    0.153227
   138  H    0.173003
   139  H    0.151305
   140  H    0.152499
   141  H    0.147780
   142  O   -0.513719
   143  C   -0.222956
   144  H    0.151211
   145  H    0.163521
   146  H    0.164682
   147  C   -0.215913
   148  H    0.172491
   149  H    0.150466
   150  H    0.153731
   151  H    0.159694
   152  H    0.137497
   153  C   -0.219333
   154  H    0.149357
   155  H    0.167197
   156  H    0.164769
   157  C   -0.212745
   158  H    0.139752
   159  H    0.165031
   160  H    0.153905
   161  H    0.150099
 Sum of Mulliken atomic charges =   0.00000

 Dipole moment (field-independent basis, Debye):
    X=             -4.5926    Y=             -5.9780    Z=             -3.1524  Tot=              8.1711
 Quadrupole moment (field-independent basis, Debye-Ang):
   XX=           -494.8104   YY=           -506.1739   ZZ=           -494.5145
   XY=             13.4037   XZ=            -12.2671   YZ=              1.0908

 Normal termination of Gaussian 09 at Sat Mar 28 17:41:38 2015.
