 Gaussian 09, Revision A.02,
 Gaussian 09:  EM64L-G09RevA.02 11-Jun-2009

 ------------------
 #p sp b3lyp/6-31g*
 ------------------

 ----------------------------------
 B3lyp auto opt job - neutral state
 ----------------------------------
 Symbolic Z-matrix:
 Charge = -1 Multiplicity = 2

                         Standard orientation:
 ---------------------------------------------------------------------
 Center     Atomic      Atomic             Coordinates (Angstroms)
 Number     Number       Type             X           Y           Z
 ---------------------------------------------------------------------
      1          6           0       -0.094385    0.077291    0.009279
      2          6           0       -0.965358    0.786443    1.051469
      3          6           0       -0.551952    0.440338    2.356318
      4          6           0        0.602265   -0.455890    2.266202
      5          6           0        0.878063   -0.702021    0.908739
      6          6           0       -0.874855   -0.822297   -0.954533
      7          6           0       -0.549938   -0.519870   -2.290784
      8          6           0        0.439161    0.561745   -2.300743
      9          6           0        0.673540    0.969126   -0.971461
     10          6           0       -1.787968   -1.817198   -0.643873
     11          6           0       -2.392537   -2.543434   -1.686786
     12          6           0       -2.066472   -2.241277   -3.022344
     13          6           0       -1.155945   -1.232995   -3.327688
     14          6           0        1.406323   -1.043489    3.246563
     15          6           0        2.465520   -1.864466    2.865374
     16          6           0        2.746643   -2.101315    1.505578
     17          6           0        1.934279   -1.509331    0.520375
     18          6           0       -2.063526    1.604196    0.842285
     19          6           0       -2.776302    2.093407    1.953352
     20          6           0       -2.357363    1.757920    3.250887
     21          6           0       -1.253101    0.932276    3.457420
     22          6           0        1.153930    1.149322   -3.347300
     23          6           0        2.110426    2.122410   -3.054279
     24          6           0        2.338108    2.530354   -1.732311
     25          6           0        1.595839    1.963322   -0.683506
     26          7           0       -3.345104   -3.559764   -1.407742
     27          7           0        3.825779   -2.936084    1.118635
     28          7           0       -3.936011    2.894069    1.759912
     29          7           0        3.375965    3.483602   -1.449860
     30          6           0        4.709323    2.995231   -1.380028
     31          6           0       -3.882951    4.047512    0.934487
     32          6           0        2.992352    4.692769   -0.802850
     33          6           0       -5.065721    2.683900    2.598320
     34          6           0       -3.171663   -4.452499   -0.322016
     35          6           0       -4.550886   -3.587335   -2.165212
     36          6           0        5.063756   -2.905968    1.809546
     37          6           0        3.609428   -3.894477    0.087334
     38          6           0        5.789758   -4.083692    2.022755
     39          6           0        7.019288   -4.024442    2.683027
     40          6           0        7.531482   -2.820650    3.150545
     41          6           0        6.800871   -1.640469    2.939544
     42          6           0        5.578580   -1.677930    2.266240
     43          6           0       -4.283192   -4.901680    0.415562
     44          6           0       -4.095997   -5.788757    1.469058
     45          6           0       -2.823811   -6.240387    1.831405
     46          6           0       -1.722112   -5.788168    1.095286
     47          6           0       -1.894460   -4.908406    0.022291
     48          6           0       -4.950550   -4.767097   -2.840962
     49          6           0       -6.141087   -4.774221   -3.575533
     50          6           0       -6.918275   -3.616341   -3.670999
     51          6           0       -6.519992   -2.446036   -3.029833
     52          6           0       -5.345985   -2.442888   -2.275129
     53          6           0        4.463233   -3.943743   -1.042318
     54          6           0        4.237518   -4.900990   -2.037261
     55          6           0        3.153787   -5.778842   -1.940771
     56          6           0        2.290614   -5.714508   -0.849786
     57          6           0        2.531292   -4.781298    0.159638
     58          6           0       -2.712937    4.810540    0.833245
     59          6           0       -2.700664    5.950304    0.025273
     60          6           0       -3.833433    6.346453   -0.676693
     61          6           0       -5.004875    5.580159   -0.576753
     62          6           0       -5.031365    4.432472    0.216797
     63          6           0       -5.682253    1.407972    2.660356
     64          6           0       -6.784469    1.211076    3.498353
     65          6           0       -7.299529    2.270179    4.251445
     66          6           0       -6.712338    3.530878    4.181739
     67          6           0       -5.596230    3.725303    3.366702
     68          6           0        1.889391    5.395887   -1.320537
     69          6           0        1.472057    6.582810   -0.717640
     70          6           0        2.144776    7.080023    0.407609
     71          6           0        3.236906    6.378619    0.906040
     72          6           0        3.667735    5.187866    0.317091
     73          6           0        4.976641    1.670029   -0.996239
     74          6           0        6.279800    1.176420   -0.939498
     75          6           0        7.357274    2.007484   -1.248787
     76          6           0        7.111025    3.323362   -1.641279
     77          6           0        5.808660    3.816667   -1.728398
     78          1           0        1.787741    2.275927    0.339080
     79          1           0       -2.401353    1.849596   -0.159849
     80          1           0       -2.910947    2.147236    4.099579
     81          1           0       -0.947870    0.681148    4.470147
     82          1           0        1.208998   -0.876177    4.302564
     83          1           0        3.088375   -2.332052    3.620858
     84          1           0        0.988559    0.841976   -4.376710
     85          1           0        2.701344    2.569270   -3.848456
     86          1           0       -0.916914   -1.019285   -4.366410
     87          1           0       -2.534953   -2.810757   -3.818488
     88          1           0        2.149668   -1.684441   -0.529172
     89          1           0       -2.040141   -2.038226    0.388285
     90          1           0       -5.278171   -4.555334    0.157570
     91          1           0       -4.958511   -6.131061    2.035475
     92          1           0        7.579005   -4.941932    2.846824
     93          1           0        5.394146   -5.032354    1.676595
     94          8           0       -0.426725   -6.167933    1.335563
     95          1           0        4.520674    4.651186    0.717122
     96          1           0        3.763413    6.761029    1.776602
     97          8           0        0.418885    7.336773   -1.166336
     98          1           0       -7.258547    0.237740    3.552571
     99          8           0       -5.140433    0.440646    1.868817
    100          1           0       -7.104983    4.356859    4.767621
    101          1           0       -5.118414    4.698757    3.312294
    102          8           0       -6.070321    6.031648   -1.306384
    103          1           0       -3.841992    7.237353   -1.296289
    104          1           0       -1.794400    6.546691   -0.036519
    105          1           0       -1.828411    4.524198    1.390971
    106          1           0        4.148612    1.019692   -0.736468
    107          1           0        6.440554    0.145021   -0.636131
    108          1           0        8.377050    1.636754   -1.195316
    109          1           0        7.922059    3.997648   -1.900641
    110          8           0        5.645061    5.132857   -2.100726
    111          1           0        4.888916   -4.952543   -2.902263
    112          8           0        5.465986   -3.020937   -1.079771
    113          1           0        2.989015   -6.506187   -2.731244
    114          1           0        1.439958   -6.383187   -0.763980
    115          1           0        1.864726   -4.727247    1.014663
    116          1           0       -5.023146   -1.541258   -1.762686
    117          1           0       -7.120013   -1.543837   -3.103076
    118          1           0       -7.834187   -3.638599   -4.255164
    119          1           0       -6.457625   -5.672989   -4.092436
    120          8           0       -4.113733   -5.834071   -2.724479
    121          1           0        8.480338   -2.764174    3.673729
    122          1           0       -2.707853   -6.923563    2.664106
    123          1           0       -8.162892    2.099169    4.888627
    124          1           0        1.804536    8.006591    0.858164
    125          6           0        5.122009    5.337529   -3.412370
    126          6           0       -5.647879   -0.880684    1.968952
    127          6           0       -4.478009   -7.054119   -3.348628
    128          6           0        6.375366   -3.055977   -2.167384
    129          1           0        5.771336    4.876113   -4.168904
    130          1           0        5.098584    6.419025   -3.564275
    131          1           0        4.106854    4.936714   -3.509585
    132          1           0       -5.039867   -1.487406    1.295774
    133          1           0       -6.699487   -0.935257    1.656453
    134          1           0       -5.554817   -1.270613    2.990784
    135          1           0       -3.678120   -7.757741   -3.112106
    136          1           0       -4.554172   -6.943624   -4.438612
    137          1           0       -5.428533   -7.439944   -2.957473
    138          1           0        7.083970   -2.245498   -1.988933
    139          1           0        5.866438   -2.886382   -3.125521
    140          1           0        6.916847   -4.010071   -2.209191
    141          1           0        5.019462   -0.771436    2.073660
    142          8           0        7.376753   -0.496979    3.416732
    143          6           0        6.693751    0.733090    3.225277
    144          1           0        5.707469    0.726471    3.708002
    145          1           0        6.571834    0.967835    2.159922
    146          1           0        7.318541    1.496505    3.693148
    147          6           0       -0.178370   -7.074555    2.398674
    148          1           0        0.900436   -7.239945    2.403939
    149          1           0       -0.692485   -8.031882    2.241012
    150          1           0       -0.485889   -6.655692    3.365733
    151          1           0       -1.020765   -4.595096   -0.537629
    152          1           0        1.377772    4.998964   -2.188238
    153          6           0       -0.174933    6.984194   -2.407737
    154          1           0        0.570633    6.965362   -3.213496
    155          1           0       -0.914495    7.759855   -2.616087
    156          1           0       -0.680918    6.012209   -2.355845
    157          6           0       -7.287139    5.308152   -1.236087
    158          1           0       -5.922626    3.822869    0.295310
    159          1           0       -7.992590    5.845502   -1.873164
    160          1           0       -7.678980    5.271885   -0.210826
    161          1           0       -7.170774    4.282097   -1.610523
 ---------------------------------------------------------------------

 SCF Done:  E(UB3LYP) =  -3948.28265763     A.U. after   23 cycles

 Alpha virt. eigenvalues --    0.16963   0.17289   0.17441   0.17580   0.17637
 Alpha virt. eigenvalues --    0.18108   0.18427   0.18744   0.19155   0.19396
 Alpha virt. eigenvalues --    0.19572   0.19656   0.20064   0.20098   0.20157

  Beta  occ. eigenvalues --  -19.10816 -19.10474 -19.10466 -19.10393 -19.10077
  Beta  occ. eigenvalues --  -19.10070 -19.09875 -19.08310 -14.27266 -14.27261
  Beta  occ. eigenvalues --  -14.27046 -14.26817 -10.17869 -10.17446 -10.17320
  Beta  occ. eigenvalues --  -10.17281 -10.17174 -10.17135 -10.16977 -10.16807
  Beta  occ. eigenvalues --  -10.16679 -10.16608 -10.16523 -10.16402 -10.16378
  Beta  occ. eigenvalues --  -10.16202 -10.15759 -10.15638 -10.14564 -10.14560
  Beta  occ. eigenvalues --  -10.14438 -10.14314 -10.14265 -10.14249 -10.14174
  Beta  occ. eigenvalues --  -10.14062 -10.12337 -10.12087 -10.11686 -10.11498
  Beta  occ. eigenvalues --  -10.11469 -10.11379 -10.11275 -10.11191 -10.11189
  Beta  occ. eigenvalues --  -10.11158 -10.11097 -10.11096 -10.11071 -10.11020
  Beta  occ. eigenvalues --  -10.10960 -10.10799 -10.10789 -10.10708 -10.10683
  Beta  occ. eigenvalues --  -10.10679 -10.10644 -10.10503 -10.10408 -10.10351
  Beta  occ. eigenvalues --  -10.10270 -10.10239 -10.10112 -10.09953 -10.09934
  Beta  occ. eigenvalues --  -10.09897 -10.09828 -10.09770 -10.09736 -10.09697
  Beta  occ. eigenvalues --  -10.09451 -10.09415 -10.09326 -10.08999 -10.08966
  Beta  occ. eigenvalues --  -10.08950 -10.08856 -10.08849 -10.08630 -10.08626
  Beta  occ. eigenvalues --  -10.08425 -10.08372 -10.08356 -10.08334 -10.08328
  Beta  occ. eigenvalues --  -10.08247 -10.08203 -10.07922 -10.07836 -10.07612
  Beta  occ. eigenvalues --  -10.07586 -10.07521 -10.07246  -0.99603  -0.99081
  Beta  occ. eigenvalues --   -0.99026  -0.98813  -0.98793  -0.98411  -0.98396
  Beta  occ. eigenvalues --   -0.96964  -0.87089  -0.87070  -0.86770  -0.86349
  Beta  occ. eigenvalues --   -0.79155  -0.77327  -0.77262  -0.77029  -0.76731
  Beta  occ. eigenvalues --   -0.76496  -0.76081  -0.75896  -0.75602  -0.75172
  Beta  occ. eigenvalues --   -0.73391  -0.72759  -0.70161  -0.68585  -0.68474
  Beta  occ. eigenvalues --   -0.68138  -0.67984  -0.67794  -0.67513  -0.67412
  Beta  occ. eigenvalues --   -0.67364  -0.67272  -0.66876  -0.66782  -0.66643
  Beta  occ. eigenvalues --   -0.66495  -0.66250  -0.65545  -0.64788  -0.64439
  Beta  occ. eigenvalues --   -0.64047  -0.63917  -0.63579  -0.63359  -0.62440
  Beta  occ. eigenvalues --   -0.62283  -0.62122  -0.61887  -0.61880  -0.61439
  Beta  occ. eigenvalues --   -0.61122  -0.60679  -0.59418  -0.59013  -0.57938
  Beta  occ. eigenvalues --   -0.54882  -0.54451  -0.54430  -0.53977  -0.53763
  Beta  occ. eigenvalues --   -0.53473  -0.52582  -0.52464  -0.52377  -0.52291
  Beta  occ. eigenvalues --   -0.51833  -0.51682  -0.51538  -0.51305  -0.50860
  Beta  occ. eigenvalues --   -0.50375  -0.49879  -0.49405  -0.48832  -0.48460
  Beta  occ. eigenvalues --   -0.48259  -0.47483  -0.47007  -0.46828  -0.46542
  Beta  occ. eigenvalues --   -0.46240  -0.46120  -0.45803  -0.44880  -0.44805
  Beta  occ. eigenvalues --   -0.44237  -0.43468  -0.42880  -0.42800  -0.42416
  Beta  occ. eigenvalues --   -0.41532  -0.41346  -0.40973  -0.40873  -0.40771
  Beta  occ. eigenvalues --   -0.40656  -0.40557  -0.40482  -0.40406  -0.40245
  Beta  occ. eigenvalues --   -0.40139  -0.40043  -0.40039  -0.39965  -0.39875
  Beta  occ. eigenvalues --   -0.39773  -0.39726  -0.39690  -0.39613  -0.39395
  Beta  occ. eigenvalues --   -0.39260  -0.38939  -0.38910  -0.38817  -0.38522
  Beta  occ. eigenvalues --   -0.38253  -0.38077  -0.37920  -0.37577  -0.37514
  Beta  occ. eigenvalues --   -0.37081  -0.36838  -0.36408  -0.36322  -0.36165
  Beta  occ. eigenvalues --   -0.35975  -0.35267  -0.35159  -0.35144  -0.34772
  Beta  occ. eigenvalues --   -0.34678  -0.34537  -0.34346  -0.34216  -0.34114
  Beta  occ. eigenvalues --   -0.33999  -0.33890  -0.33689  -0.33645  -0.33545
  Beta  occ. eigenvalues --   -0.33201  -0.33139  -0.32845  -0.32741  -0.32579
  Beta  occ. eigenvalues --   -0.32130  -0.31674  -0.30822  -0.30677  -0.30573
  Beta  occ. eigenvalues --   -0.30423  -0.30355  -0.30267  -0.30031  -0.29975
  Beta  occ. eigenvalues --   -0.29964  -0.29942  -0.29740  -0.29512  -0.29410
  Beta  occ. eigenvalues --   -0.29354  -0.29298  -0.29117  -0.28900  -0.28834
  Beta  occ. eigenvalues --   -0.28748  -0.28581  -0.28295  -0.28290  -0.28210
  Beta  occ. eigenvalues --   -0.27820  -0.27661  -0.27482  -0.27370  -0.27021
  Beta  occ. eigenvalues --   -0.26303  -0.26179  -0.26159  -0.26035  -0.25811
  Beta  occ. eigenvalues --   -0.25726  -0.25578  -0.25349  -0.25313  -0.25234
  Beta  occ. eigenvalues --   -0.25145  -0.25104  -0.24931  -0.24884  -0.24740
  Beta  occ. eigenvalues --   -0.24585  -0.24195  -0.24069  -0.23964  -0.23716
  Beta  occ. eigenvalues --   -0.23664  -0.23387  -0.22795  -0.21726  -0.21269
  Beta  occ. eigenvalues --   -0.20760  -0.20681  -0.20348  -0.19420  -0.18118
  Beta  occ. eigenvalues --   -0.17876  -0.17795  -0.17234  -0.17140  -0.16928
  Beta  occ. eigenvalues --   -0.15810  -0.15626  -0.15244  -0.15021  -0.14744
  Beta  occ. eigenvalues --   -0.14491  -0.14269  -0.14180  -0.14009  -0.13972
  Beta  occ. eigenvalues --   -0.13655  -0.13490  -0.12997  -0.12105  -0.10292
  Beta  occ. eigenvalues --   -0.10208  -0.08064  -0.07804
  Beta virt. eigenvalues --    0.06370   0.06717   0.06903   0.06979   0.07236
  Beta virt. eigenvalues --    0.07437   0.07996   0.08118   0.08216   0.08362
  Beta virt. eigenvalues --    0.08964   0.09041   0.09309   0.09359   0.09702

 Mulliken atomic charges:
              1
     1  C   -0.265608
     2  C    0.116113
     3  C    0.065920
     4  C    0.068510
     5  C    0.126408
     6  C    0.122613
     7  C    0.062498
     8  C    0.064365
     9  C    0.115023
    10  C   -0.255861
    11  C    0.260268
    12  C   -0.172251
    13  C   -0.221791
    14  C   -0.215645
    15  C   -0.183833
    16  C    0.273811
    17  C   -0.246060
    18  C   -0.225579
    19  C    0.296793
    20  C   -0.187035
    21  C   -0.218033
    22  C   -0.223249
    23  C   -0.163556
    24  C    0.205779
    25  C   -0.237199
    26  N   -0.650451
    27  N   -0.649700
    28  N   -0.643876
    29  N   -0.661624
    30  C    0.277218
    31  C    0.295517
    32  C    0.315092
    33  C    0.208399
    34  C    0.340127
    35  C    0.198380
    36  C    0.333794
    37  C    0.206171
    38  C   -0.191218
    39  C   -0.142109
    40  C   -0.182080
    41  C    0.373276
    42  C   -0.254248
    43  C   -0.185898
    44  C   -0.148566
    45  C   -0.203639
    46  C    0.370980
    47  C   -0.231274
    48  C    0.362835
    49  C   -0.211577
    50  C   -0.141021
    51  C   -0.146451
    52  C   -0.169193
    53  C    0.370071
    54  C   -0.208937
    55  C   -0.134526
    56  C   -0.152549
    57  C   -0.174805
    58  C   -0.186778
    59  C   -0.161943
    60  C   -0.187026
    61  C    0.373905
    62  C   -0.245581
    63  C    0.365841
    64  C   -0.211851
    65  C   -0.140549
    66  C   -0.145492
    67  C   -0.175737
    68  C   -0.244608
    69  C    0.375285
    70  C   -0.177549
    71  C   -0.144924
    72  C   -0.168291
    73  C   -0.199818
    74  C   -0.161558
    75  C   -0.147984
    76  C   -0.174650
    77  C    0.317746
    78  H    0.127546
    79  H    0.136397
    80  H    0.114905
    81  H    0.102449
    82  H    0.103589
    83  H    0.117111
    84  H    0.097527
    85  H    0.097832
    86  H    0.096302
    87  H    0.108531
    88  H    0.143959
    89  H    0.132028
    90  H    0.122818
    91  H    0.106022
    92  H    0.106467
    93  H    0.123703
    94  O   -0.510615
    95  H    0.126858
    96  H    0.111074
    97  O   -0.525039
    98  H    0.120024
    99  O   -0.495828
   100  H    0.107525
   101  H    0.135533
   102  O   -0.518161
   103  H    0.111615
   104  H    0.153313
   105  H    0.148606
   106  H    0.171824
   107  H    0.143719
   108  H    0.107436
   109  H    0.112911
   110  O   -0.525380
   111  H    0.117085
   112  O   -0.503305
   113  H    0.109035
   114  H    0.132941
   115  H    0.157407
   116  H    0.153076
   117  H    0.112882
   118  H    0.104739
   119  H    0.113618
   120  O   -0.498658
   121  H    0.109383
   122  H    0.106887
   123  H    0.105476
   124  H    0.113258
   125  C   -0.204191
   126  C   -0.219355
   127  C   -0.204996
   128  C   -0.208321
   129  H    0.126613
   130  H    0.147392
   131  H    0.165448
   132  H    0.192111
   133  H    0.136567
   134  H    0.147385
   135  H    0.166510
   136  H    0.140981
   137  H    0.142194
   138  H    0.168545
   139  H    0.149995
   140  H    0.140181
   141  H    0.156528
   142  O   -0.520800
   143  C   -0.222980
   144  H    0.155029
   145  H    0.169161
   146  H    0.152075
   147  C   -0.207592
   148  H    0.165699
   149  H    0.138512
   150  H    0.149174
   151  H    0.164375
   152  H    0.142036
   153  C   -0.216435
   154  H    0.143185
   155  H    0.154918
   156  H    0.174074
   157  C   -0.208325
   158  H    0.134497
   159  H    0.151929
   160  H    0.150110
   161  H    0.152398
 Sum of Mulliken atomic charges =  -1.00000

 Dipole moment (field-independent basis, Debye):
    X=             -3.0329    Y=             -5.1105    Z=             -1.8638  Tot=              6.2281
 Quadrupole moment (field-independent basis, Debye-Ang):
   XX=           -595.1939   YY=           -583.1959   ZZ=           -539.5490
   XY=              5.7571   XZ=            -12.4193   YZ=             -2.6319

 Normal termination of Gaussian 09 at Sat Mar 28 19:11:05 2015.
