 Gaussian 09, Revision A.02,
 Gaussian 09:  EM64L-G09RevA.02 11-Jun-2009

 -------------------
 #p sp B3LYP/cc-pVDZ
 -------------------

 ------------------------------------------
 Auto Spiro; and yes I said yes I will Yes.
 ------------------------------------------
 Symbolic Z-matrix:
 Charge =  1 Multiplicity = 2

                         Standard orientation:
 ---------------------------------------------------------------------
 Center     Atomic      Atomic             Coordinates (Angstroms)
 Number     Number       Type             X           Y           Z
 ---------------------------------------------------------------------
      1          6           0        0.018671   -0.040829    0.127087
      2          6           0        0.567933   -1.095786    1.095021
      3          6           0        0.381753   -0.686472    2.430244
      4          6           0       -0.283059    0.617860    2.435947
      5          6           0       -0.505540    1.019291    1.103837
      6          6           0        1.057614    0.506655   -0.859427
      7          6           0        0.631934    0.305198   -2.186787
      8          6           0       -0.671467   -0.360807   -2.169140
      9          6           0       -1.049998   -0.583014   -0.830734
     10          6           0        2.267295    1.118325   -0.571558
     11          6           0        3.083668    1.564717   -1.629862
     12          6           0        2.656915    1.360832   -2.957910
     13          6           0        1.446865    0.731122   -3.238215
     14          6           0       -0.692107    1.451741    3.478945
     15          6           0       -1.305880    2.669103    3.188501
     16          6           0       -1.536547    3.066395    1.857722
     17          6           0       -1.126049    2.221344    0.807172
     18          6           0        1.177516   -2.300436    0.787225
     19          6           0        1.609817   -3.143935    1.830767
     20          6           0        1.418262   -2.735771    3.166174
     21          6           0        0.817698   -1.515163    3.466405
     22          6           0       -1.521897   -0.770423   -3.199212
     23          6           0       -2.723140   -1.401755   -2.887536
     24          6           0       -3.104331   -1.623339   -1.549341
     25          6           0       -2.250132   -1.198891   -0.511890
     26          7           0        4.321891    2.209053   -1.379210
     27          7           0       -2.165596    4.305122    1.559073
     28          7           0        2.208054   -4.390875    1.528574
     29          7           0       -4.341305   -2.253435   -1.265127
     30          6           0       -5.488106   -1.905679   -2.033945
     31          6           0        1.683569   -5.169813    0.457672
     32          6           0       -4.491068   -3.124264   -0.152919
     33          6           0        3.205732   -4.955549    2.369252
     34          6           0        4.520020    2.986779   -0.202098
     35          6           0        5.442413    1.912856   -2.207910
     36          6           0       -3.146707    4.852298    2.433772
     37          6           0       -1.618145    5.123731    0.529440
     38          6           0       -3.139730    6.207472    2.777589
     39          6           0       -4.123009    6.748435    3.609961
     40          6           0       -5.125177    5.926897    4.133534
     41          6           0       -5.133979    4.564079    3.802461
     42          6           0       -4.167601    4.037776    2.957851
     43          6           0        5.695531    2.877598    0.546052
     44          6           0        5.910354    3.669486    1.676962
     45          6           0        4.930084    4.575221    2.091680
     46          6           0        3.741672    4.681211    1.354299
     47          6           0        3.543580    3.907555    0.219891
     48          6           0        6.224920    2.934564   -2.779616
     49          6           0        7.355891    2.627222   -3.544899
     50          6           0        7.707589    1.295810   -3.780681
     51          6           0        6.919404    0.268377   -3.241794
     52          6           0        5.816492    0.581756   -2.461037
     53          6           0       -2.433144    5.704659   -0.460782
     54          6           0       -1.886348    6.549529   -1.433635
     55          6           0       -0.513145    6.805132   -1.455446
     56          6           0        0.314549    6.210550   -0.491621
     57          6           0       -0.239685    5.395524    0.484932
     58          6           0        0.329523   -5.494231    0.401222
     59          6           0       -0.217245   -6.239075   -0.648042
     60          6           0        0.629316   -6.694840   -1.660888
     61          6           0        1.999543   -6.392780   -1.625354
     62          6           0        2.526702   -5.625146   -0.589170
     63          6           0        4.245921   -4.169895    2.880133
     64          6           0        5.230088   -4.719861    3.702669
     65          6           0        5.204607   -6.085563    4.007752
     66          6           0        4.176721   -6.882153    3.487532
     67          6           0        3.186892   -6.323421    2.689034
     68          6           0       -3.485452   -4.052088    0.177395
     69          6           0       -3.642128   -4.914292    1.252385
     70          6           0       -4.816642   -4.895855    2.019705
     71          6           0       -5.826913   -3.987732    1.693911
     72          6           0       -5.654154   -3.105507    0.623182
     73          6           0       -5.915363   -0.582852   -2.128355
     74          6           0       -7.026660   -0.208561   -2.889871
     75          6           0       -7.747549   -1.199535   -3.558642
     76          6           0       -7.345353   -2.542143   -3.477248
     77          6           0       -6.219784   -2.897935   -2.737853
     78          1           0       -2.537358   -1.353474    0.523281
     79          1           0        1.324077   -2.602741   -0.244759
     80          1           0        1.738455   -3.390455    3.969618
     81          1           0        0.676473   -1.228759    4.505758
     82          1           0       -0.522103    1.171259    4.515483
     83          1           0       -1.609291    3.325948    3.996762
     84          1           0       -1.250034   -0.616355   -4.240674
     85          1           0       -3.381286   -1.736944   -3.682654
     86          1           0        1.142756    0.588888   -4.272362
     87          1           0        3.288624    1.700260   -3.772436
     88          1           0       -1.294590    2.519649   -0.223128
     89          1           0        2.588815    1.253783    0.455766
     90          8           0       -4.872482   -5.799036    3.048070
     91          6           0       -6.026922   -5.799055    3.868008
     92          8           0        6.124025   -6.730398    4.793175
     93          6           0        7.185344   -5.966664    5.336464
     94          8           0       -6.129882    6.346108    4.964510
     95          8           0        5.029078    5.394254    3.183977
     96          6           0        6.209939    5.323756    3.962825
     97          6           0       -6.161399    7.713972    5.330206
     98          1           0       -5.920294    3.935737    4.209628
     99          1           0       -4.193828    2.982834    2.703143
    100          1           0        6.460673    2.172097    0.238474
    101          1           0       -4.085186    7.805790    3.846647
    102          1           0       -2.361854    6.854554    2.385404
    103          1           0        2.990272    5.392829    1.683565
    104          1           0        2.621600    4.008839   -0.344143
    105          1           0       -6.441301   -2.396137    0.387943
    106          1           0       -6.745563   -3.942129    2.268220
    107          1           0       -2.866965   -5.629276    1.512530
    108          1           0       -2.577079   -4.091712   -0.415125
    109          1           0        6.016698   -4.076848    4.081484
    110          1           0        4.287871   -3.114409    2.631058
    111          1           0        4.163370   -7.939603    3.733732
    112          1           0        2.389128   -6.950507    2.303639
    113          1           0        6.816400   -5.168330    5.995249
    114          1           0        7.809082   -5.519646    4.550036
    115          1           0        7.789781   -6.663401    5.920978
    116          1           0        7.100057    5.586786    3.374876
    117          1           0        6.350927    4.324294    4.396818
    118          1           0        6.083427    6.050215    4.768099
    119          1           0       -7.027987    7.831173    5.984111
    120          1           0       -6.279172    8.366042    4.453800
    121          1           0       -5.254760    8.009608    5.875887
    122          1           0       -6.933602   -6.034788    3.293521
    123          1           0       -6.165880   -4.833252    4.372922
    124          1           0       -5.864679   -6.576338    4.617529
    125          1           0        2.617266   -6.755235   -2.437551
    126          8           0        3.834778   -5.263337   -0.501132
    127          1           0       -1.277682   -6.460596   -0.650771
    128          1           0       -0.316433   -5.139468    1.198977
    129          1           0       -5.352095    0.175653   -1.592831
    130          1           0       -7.317096    0.833931   -2.936780
    131          1           0       -7.925737   -3.276034   -4.022400
    132          8           0       -5.747724   -4.170117   -2.638291
    133          1           0       -2.567338    6.978117   -2.158791
    134          8           0       -3.797370    5.532396   -0.481557
    135          1           0        1.379509    6.418644   -0.513086
    136          1           0        0.398572    4.949879    1.242175
    137          1           0        5.219937   -0.214010   -2.025186
    138          1           0        7.202182   -0.762513   -3.428600
    139          1           0        7.926175    3.457255   -3.943845
    140          8           0        5.963551    4.266504   -2.560628
    141          8           0        0.230172   -7.440141   -2.734226
    142          6           0       -1.147073   -7.760690   -2.846208
    143          8           0        8.785564    0.898921   -4.520513
    144          6           0        9.616434    1.901897   -5.080811
    145          8           0        0.111167    7.606364   -2.369160
    146          6           0       -0.685280    8.237791   -3.357816
    147          8           0       -8.857882   -0.975808   -4.323503
    148          6           0       -9.321814    0.358344   -4.450077
    149          1           0       -1.245794   -8.337891   -3.767683
    150          1           0       -1.767330   -6.857298   -2.914269
    151          1           0       -1.490765   -8.369253   -1.999155
    152          1           0      -10.201994    0.309850   -5.094027
    153          1           0       -8.567025    1.006126   -4.915514
    154          1           0       -9.606965    0.780975   -3.477472
    155          1           0        0.002860    8.829026   -3.965055
    156          1           0       -1.435576    8.902123   -2.908616
    157          1           0       -1.193743    7.503730   -3.997228
    158          1           0       10.409047    1.372381   -5.612958
    159          1           0       10.062379    2.537659   -4.304324
    160          1           0        9.064968    2.534930   -5.788942
    161          6           0       -6.463969   -5.208745   -3.285791
    162          6           0       -4.248610    4.221527   -0.826962
    163          1           0        6.838817    3.559754    2.225886
    164          6           0        4.788037    4.777477   -3.192016
    165          6           0        4.734458   -5.730092   -1.493255
    166          1           0        5.714487   -5.342006   -1.210393
    167          1           0        4.467313   -5.354201   -2.489754
    168          1           0        4.770771   -6.826910   -1.519214
    169          1           0       -5.923899   -6.129137   -3.056824
    170          1           0       -6.490852   -5.062976   -4.373877
    171          1           0       -7.491365   -5.286473   -2.907155
    172          1           0       -5.339942    4.263513   -0.805384
    173          1           0       -3.899104    3.469656   -0.112248
    174          1           0       -3.912531    3.948363   -1.836472
    175          1           0        4.866285    4.692478   -4.284623
    176          1           0        4.728907    5.831601   -2.912867
    177          1           0        3.885057    4.260764   -2.851560
 ---------------------------------------------------------------------

 SCF Done:  E(UB3LYP) =  -4406.42214720     A.U. after   23 cycles

 Alpha virt. eigenvalues --    0.44861   0.44987   0.45084   0.45178   0.45246
 Alpha virt. eigenvalues --    0.45409   0.45515   0.45561   0.45642   0.45657
 Alpha virt. eigenvalues --    0.45811   0.45901   0.46059   0.46392   0.46505

  Beta  occ. eigenvalues --  -19.23895 -19.23804 -19.23564 -19.23449 -19.23314
  Beta  occ. eigenvalues --  -19.23049 -19.23030 -19.22908 -19.22894 -19.22670
  Beta  occ. eigenvalues --  -19.22008 -19.21607 -14.43806 -14.43636 -14.43520
  Beta  occ. eigenvalues --  -14.43336 -10.31965 -10.31761 -10.31677 -10.31455
  Beta  occ. eigenvalues --  -10.31433 -10.31085 -10.31070 -10.30771 -10.30740
  Beta  occ. eigenvalues --  -10.30737 -10.30675 -10.30523 -10.30507 -10.30457
  Beta  occ. eigenvalues --  -10.30383 -10.30294 -10.30244 -10.30244 -10.30069
  Beta  occ. eigenvalues --  -10.29932 -10.29826 -10.29640 -10.29581 -10.29511
  Beta  occ. eigenvalues --  -10.29497 -10.29489 -10.29227 -10.29086 -10.28904
  Beta  occ. eigenvalues --  -10.28901 -10.28893 -10.28839 -10.28796 -10.28796
  Beta  occ. eigenvalues --  -10.28765 -10.28605 -10.28603 -10.26883 -10.26841
  Beta  occ. eigenvalues --  -10.26771 -10.26763 -10.26469 -10.26443 -10.26330
  Beta  occ. eigenvalues --  -10.26325 -10.26318 -10.26289 -10.26234 -10.26228
  Beta  occ. eigenvalues --  -10.26193 -10.26062 -10.26054 -10.26032 -10.26026
  Beta  occ. eigenvalues --  -10.25983 -10.25960 -10.25896 -10.25887 -10.25809
  Beta  occ. eigenvalues --  -10.25783 -10.25729 -10.25500 -10.25434 -10.25395
  Beta  occ. eigenvalues --  -10.25350 -10.25319 -10.25270 -10.25268 -10.25184
  Beta  occ. eigenvalues --  -10.25174 -10.25164 -10.25089 -10.25087 -10.25060
  Beta  occ. eigenvalues --  -10.25031 -10.25025 -10.24972 -10.24911 -10.24891
  Beta  occ. eigenvalues --  -10.24882 -10.24791 -10.24764 -10.24734 -10.24697
  Beta  occ. eigenvalues --  -10.24672  -1.13750  -1.13644  -1.13124  -1.13030
  Beta  occ. eigenvalues --   -1.12885  -1.12627  -1.12544  -1.12429  -1.12382
  Beta  occ. eigenvalues --   -1.12179  -1.11803  -1.11424  -1.03558  -1.03400
  Beta  occ. eigenvalues --   -1.03310  -1.03291  -0.97583  -0.94614  -0.92314
  Beta  occ. eigenvalues --   -0.92183  -0.92162  -0.92122  -0.92038  -0.91910
  Beta  occ. eigenvalues --   -0.91035  -0.90801  -0.90071  -0.89987  -0.87865
  Beta  occ. eigenvalues --   -0.85708  -0.84448  -0.83315  -0.83157  -0.82890
  Beta  occ. eigenvalues --   -0.82737  -0.82516  -0.82350  -0.82309  -0.82093
  Beta  occ. eigenvalues --   -0.82055  -0.81853  -0.81838  -0.81574  -0.81530
  Beta  occ. eigenvalues --   -0.81447  -0.81432  -0.80971  -0.80942  -0.79919
  Beta  occ. eigenvalues --   -0.79868  -0.78190  -0.78158  -0.76685  -0.76634
  Beta  occ. eigenvalues --   -0.76522  -0.76371  -0.76313  -0.76125  -0.75822
  Beta  occ. eigenvalues --   -0.75481  -0.75317  -0.74684  -0.74609  -0.73497
  Beta  occ. eigenvalues --   -0.73364  -0.71376  -0.70547  -0.69513  -0.68709
  Beta  occ. eigenvalues --   -0.68404  -0.68221  -0.68160  -0.67721  -0.67609
  Beta  occ. eigenvalues --   -0.67454  -0.67350  -0.67060  -0.66834  -0.66268
  Beta  occ. eigenvalues --   -0.66052  -0.65845  -0.65695  -0.65293  -0.65215
  Beta  occ. eigenvalues --   -0.65186  -0.63621  -0.63596  -0.63371  -0.62723
  Beta  occ. eigenvalues --   -0.61106  -0.60938  -0.60564  -0.60356  -0.60264
  Beta  occ. eigenvalues --   -0.60142  -0.60083  -0.59474  -0.59342  -0.58992
  Beta  occ. eigenvalues --   -0.58807  -0.58311  -0.58171  -0.57815  -0.57799
  Beta  occ. eigenvalues --   -0.57713  -0.57375  -0.57073  -0.56753  -0.56664
  Beta  occ. eigenvalues --   -0.56452  -0.56083  -0.55546  -0.55399  -0.54866
  Beta  occ. eigenvalues --   -0.54712  -0.54516  -0.54286  -0.54102  -0.54058
  Beta  occ. eigenvalues --   -0.53618  -0.53415  -0.53381  -0.53283  -0.52951
  Beta  occ. eigenvalues --   -0.52753  -0.52567  -0.52536  -0.52450  -0.52326
  Beta  occ. eigenvalues --   -0.52284  -0.52082  -0.51966  -0.51644  -0.51485
  Beta  occ. eigenvalues --   -0.51449  -0.51294  -0.51262  -0.51208  -0.51111
  Beta  occ. eigenvalues --   -0.51095  -0.51071  -0.51004  -0.50912  -0.50861
  Beta  occ. eigenvalues --   -0.50768  -0.50637  -0.50507  -0.50146  -0.50033
  Beta  occ. eigenvalues --   -0.49931  -0.49804  -0.49561  -0.49399  -0.48898
  Beta  occ. eigenvalues --   -0.48721  -0.48685  -0.48606  -0.48404  -0.48252
  Beta  occ. eigenvalues --   -0.48053  -0.47998  -0.47896  -0.47810  -0.47697
  Beta  occ. eigenvalues --   -0.47578  -0.47500  -0.47466  -0.47361  -0.47023
  Beta  occ. eigenvalues --   -0.46901  -0.46435  -0.46374  -0.45920  -0.45592
  Beta  occ. eigenvalues --   -0.45367  -0.45335  -0.45167  -0.44976  -0.44931
  Beta  occ. eigenvalues --   -0.44819  -0.44518  -0.44399  -0.44295  -0.44171
  Beta  occ. eigenvalues --   -0.44153  -0.44030  -0.43966  -0.43854  -0.43789
  Beta  occ. eigenvalues --   -0.43709  -0.43609  -0.43287  -0.43224  -0.43034
  Beta  occ. eigenvalues --   -0.42387  -0.42229  -0.42201  -0.42159  -0.41836
  Beta  occ. eigenvalues --   -0.41421  -0.41274  -0.41016  -0.40976  -0.40818
  Beta  occ. eigenvalues --   -0.40695  -0.40437  -0.40392  -0.40100  -0.39820
  Beta  occ. eigenvalues --   -0.39653  -0.39608  -0.39447  -0.39412  -0.39183
  Beta  occ. eigenvalues --   -0.39155  -0.39028  -0.38822  -0.38703  -0.38649
  Beta  occ. eigenvalues --   -0.38509  -0.38011  -0.37943  -0.37380  -0.37246
  Beta  occ. eigenvalues --   -0.37125  -0.36995  -0.35141  -0.34767  -0.34203
  Beta  occ. eigenvalues --   -0.33882  -0.33683  -0.32379  -0.32307  -0.32192
  Beta  occ. eigenvalues --   -0.32026  -0.31962  -0.31756  -0.31492  -0.31445
  Beta  occ. eigenvalues --   -0.31253  -0.30926  -0.30729  -0.30157  -0.30048
  Beta  occ. eigenvalues --   -0.29219  -0.28793  -0.28696  -0.28658  -0.28654
  Beta  occ. eigenvalues --   -0.28520  -0.24575  -0.24537  -0.23007
  Beta virt. eigenvalues --   -0.21512  -0.10630  -0.10464  -0.09563  -0.09397
  Beta virt. eigenvalues --   -0.08518  -0.07937  -0.07415  -0.07272  -0.06998
  Beta virt. eigenvalues --   -0.06899  -0.06776  -0.06743  -0.06511  -0.06408

 Mulliken atomic charges:
              1
     1  C   -0.301950
     2  C    0.099793
     3  C    0.047388
     4  C    0.047134
     5  C    0.102551
     6  C    0.096854
     7  C    0.044519
     8  C    0.044897
     9  C    0.098075
    10  C    0.012048
    11  C    0.094594
    12  C    0.069990
    13  C   -0.008488
    14  C   -0.006861
    15  C    0.061660
    16  C    0.085419
    17  C    0.025897
    18  C    0.028302
    19  C    0.097302
    20  C    0.060235
    21  C   -0.006286
    22  C   -0.009183
    23  C    0.077115
    24  C    0.090401
    25  C    0.014517
    26  N   -0.270461
    27  N   -0.270882
    28  N   -0.257606
    29  N   -0.262117
    30  C   -0.015496
    31  C   -0.013221
    32  C    0.089585
    33  C    0.082097
    34  C    0.077000
    35  C    0.007927
    36  C    0.075979
    37  C    0.013105
    38  C    0.037375
    39  C    0.001110
    40  C    0.127462
    41  C    0.054710
    42  C    0.045074
    43  C    0.040981
    44  C    0.001744
    45  C    0.128186
    46  C    0.042147
    47  C    0.044099
    48  C    0.066472
    49  C    0.023385
    50  C    0.146159
    51  C    0.056148
    52  C    0.067120
    53  C    0.069299
    54  C    0.023429
    55  C    0.146708
    56  C    0.044959
    57  C    0.065911
    58  C    0.075116
    59  C   -0.010280
    60  C    0.127264
    61  C   -0.001588
    62  C    0.158040
    63  C    0.045594
    64  C    0.000901
    65  C    0.127785
    66  C    0.052299
    67  C    0.042888
    68  C    0.044606
    69  C    0.037228
    70  C    0.126394
    71  C   -0.000370
    72  C    0.032790
    73  C    0.074680
    74  C   -0.002552
    75  C    0.127524
    76  C   -0.004031
    77  C    0.156380
    78  H   -0.034291
    79  H   -0.035823
    80  H   -0.015353
    81  H   -0.040119
    82  H   -0.040107
    83  H   -0.015481
    84  H   -0.042869
    85  H   -0.022298
    86  H   -0.042732
    87  H   -0.024674
    88  H   -0.043284
    89  H   -0.032515
    90  O   -0.275678
    91  C    0.125424
    92  O   -0.273739
    93  C    0.124878
    94  O   -0.275658
    95  O   -0.275348
    96  C    0.125195
    97  C    0.124632
    98  H   -0.021720
    99  H   -0.027526
   100  H   -0.022958
   101  H   -0.023161
   102  H   -0.021160
   103  H   -0.021402
   104  H   -0.025501
   105  H   -0.024224
   106  H   -0.024877
   107  H   -0.022466
   108  H   -0.023957
   109  H   -0.025502
   110  H   -0.024820
   111  H   -0.017383
   112  H   -0.022535
   113  H    0.029981
   114  H    0.029821
   115  H    0.044322
   116  H    0.033500
   117  H    0.028377
   118  H    0.042078
   119  H    0.042740
   120  H    0.031946
   121  H    0.030963
   122  H    0.031280
   123  H    0.029852
   124  H    0.042295
   125  H   -0.020984
   126  O   -0.273760
   127  H   -0.026001
   128  H   -0.031127
   129  H   -0.038965
   130  H   -0.031320
   131  H   -0.021213
   132  O   -0.275047
   133  H   -0.031636
   134  O   -0.291978
   135  H   -0.020869
   136  H   -0.026873
   137  H   -0.029766
   138  H   -0.025125
   139  H   -0.030527
   140  O   -0.292724
   141  O   -0.274051
   142  C    0.124944
   143  O   -0.275402
   144  C    0.126722
   145  O   -0.275777
   146  C    0.126936
   147  O   -0.274453
   148  C    0.126679
   149  H    0.042613
   150  H    0.031525
   151  H    0.034884
   152  H    0.044576
   153  H    0.030472
   154  H    0.031673
   155  H    0.042616
   156  H    0.036021
   157  H    0.029989
   158  H    0.043377
   159  H    0.034204
   160  H    0.031950
   161  C    0.129244
   162  C    0.125120
   163  H   -0.024994
   164  C    0.126179
   165  C    0.128915
   166  H    0.041872
   167  H    0.032349
   168  H    0.038517
   169  H    0.038233
   170  H    0.034205
   171  H    0.037144
   172  H    0.038123
   173  H    0.033325
   174  H    0.016619
   175  H    0.017749
   176  H    0.041409
   177  H    0.031302
 Sum of Mulliken atomic charges =   1.00000

 Dipole moment (field-independent basis, Debye):
    X=             -0.9155    Y=              0.3968    Z=             -1.3848  Tot=              1.7068
 Quadrupole moment (field-independent basis, Debye-Ang):
   XX=           -379.1936   YY=           -428.2914   ZZ=           -479.1087
   XY=              2.7294   XZ=             11.0812   YZ=             -0.8509

 Normal termination of Gaussian 09 at Tue Jan 27 13:43:44 2015.
