 Gaussian 09, Revision A.02,
 Gaussian 09:  EM64L-G09RevA.02 11-Jun-2009

 -------------------
 #p sp B3LYP/cc-pVDZ
 -------------------

 ------------------------------------------
 Auto Spiro; and yes I said yes I will Yes.
 ------------------------------------------
 Symbolic Z-matrix:
 Charge =  1 Multiplicity = 2

                         Standard orientation:
 ---------------------------------------------------------------------
 Center     Atomic      Atomic             Coordinates (Angstroms)
 Number     Number       Type             X           Y           Z
 ---------------------------------------------------------------------
      1          6           0        0.175792   -0.131311    0.013942
      2          6           0       -0.399155   -1.189373   -0.939345
      3          6           0       -0.152575   -0.831818   -2.277952
      4          6           0        0.550474    0.453299   -2.301297
      5          6           0        0.737122    0.892035   -0.975397
      6          6           0       -0.875002    0.404639    0.990840
      7          6           0       -0.511251    0.108103    2.319409
      8          6           0        0.784866   -0.573948    2.311164
      9          6           0        1.226888   -0.692915    0.979959
     10          6           0       -2.065738    1.048314    0.694845
     11          6           0       -2.915660    1.439203    1.746450
     12          6           0       -2.542766    1.162234    3.075189
     13          6           0       -1.356627    0.490414    3.363957
     14          6           0        1.008630    1.246127   -3.356502
     15          6           0        1.636404    2.458827   -3.080995
     16          6           0        1.839592    2.887990   -1.755636
     17          6           0        1.385044    2.084144   -0.693332
     18          6           0       -1.119882   -2.326876   -0.611232
     19          6           0       -1.607727   -3.156802   -1.640349
     20          6           0       -1.309092   -2.829449   -2.980328
     21          6           0       -0.601932   -1.672411   -3.299808
     22          6           0        1.593040   -1.058114    3.342285
     23          6           0        2.827670   -1.625759    3.039386
     24          6           0        3.298891   -1.688548    1.711153
     25          6           0        2.469971   -1.222032    0.670768
     26          7           0       -4.144836    2.100248    1.473347
     27          7           0        2.500651    4.119807   -1.498637
     28          7           0       -2.380896   -4.301834   -1.333645
     29          7           0        4.595814   -2.195083    1.447928
     30          6           0        5.637537   -1.996591    2.405529
     31          6           0       -2.182598   -4.974696   -0.091177
     32          6           0        4.935919   -2.791661    0.201383
     33          6           0       -3.437693   -4.746147   -2.175633
     34          6           0       -4.214397    3.091270    0.457740
     35          6           0       -5.312866    1.737554    2.198551
     36          6           0        3.638825    4.486481   -2.270935
     37          6           0        2.065927    4.962159   -0.441437
     38          6           0        3.777528    5.803528   -2.746710
     39          6           0        4.894065    6.144962   -3.499424
     40          6           0        5.881002    5.204530   -3.813338
     41          6           0        5.734616    3.893991   -3.344325
     42          6           0        4.623692    3.541091   -2.567504
     43          6           0       -5.322281    3.150200   -0.392883
     44          6           0       -5.406129    4.133821   -1.385696
     45          6           0       -4.369294    5.057970   -1.555248
     46          6           0       -3.258512    4.979990   -0.708744
     47          6           0       -3.170289    4.021763    0.294059
     48          6           0       -6.185591    2.724531    2.664802
     49          6           0       -7.344237    2.374233    3.368523
     50          6           0       -7.630168    1.030002    3.634780
     51          6           0       -6.742674    0.051914    3.174092
     52          6           0       -5.599872    0.383984    2.456864
     53          6           0        3.000753    5.624819    0.359674
     54          6           0        2.580462    6.474390    1.390408
     55          6           0        1.217085    6.653264    1.648607
     56          6           0        0.290762    5.973454    0.850504
     57          6           0        0.691899    5.143266   -0.188979
     58          6           0       -0.986822   -5.644473    0.171486
     59          6           0       -0.775115   -6.303404    1.383742
     60          6           0       -1.784522   -6.305161    2.343205
     61          6           0       -2.991895   -5.643100    2.104354
     62          6           0       -3.195836   -4.964277    0.897865
     63          6           0       -4.261938   -3.816913   -2.835578
     64          6           0       -5.299718   -4.264628   -3.654087
     65          6           0       -5.542871   -5.638853   -3.806090
     66          6           0       -4.734071   -6.546543   -3.134183
     67          6           0       -3.677962   -6.116561   -2.326922
     68          6           0        4.057868   -3.702058   -0.415462
     69          6           0        4.406919   -4.285122   -1.636916
     70          6           0        5.640780   -3.993763   -2.237408
     71          6           0        6.504170   -3.102447   -1.612982
     72          6           0        6.161332   -2.489251   -0.406927
     73          6           0        5.875395   -0.734089    2.958403
     74          6           0        6.902661   -0.577501    3.892322
     75          6           0        7.703498   -1.650401    4.266223
     76          6           0        7.470090   -2.914168    3.702585
     77          6           0        6.433475   -3.091235    2.782922
     78          1           0        2.812475   -1.259209   -0.357661
     79          1           0       -1.332420   -2.566010    0.425461
     80          1           0       -1.655019   -3.483734   -3.773262
     81          1           0       -0.403356   -1.437711   -4.342704
     82          1           0        0.867916    0.936389   -4.388969
     83          1           0        1.981165    3.086395   -3.896254
     84          1           0        1.270213   -1.000671    4.378860
     85          1           0        3.452607   -2.006734    3.839525
     86          1           0       -1.092135    0.286441    4.398500
     87          1           0       -3.196153    1.478264    3.881952
     88          1           0        1.544649    2.401276    0.332219
     89          1           0       -2.348825    1.249678   -0.333434
     90          1           0        5.887000   -4.465680   -3.182822
     91          1           0       -6.358440   -5.959856   -4.445685
     92          1           0        6.735534    5.498007   -4.411288
     93          1           0       -4.412392    5.823408   -2.320773
     94          8           0        6.627095    2.884698   -3.573773
     95          1           0        4.544352    2.522135   -2.205499
     96          1           0       -6.135925    2.440327   -0.297587
     97          8           0       -6.539517    4.091826   -2.149577
     98          1           0        4.998233    7.162392   -3.867408
     99          1           0        3.012718    6.539244   -2.523329
    100          1           0       -2.452050    5.698291   -0.832015
    101          1           0       -2.306057    3.984134    0.948015
    102          1           0        6.833484   -1.778296    0.060012
    103          1           0        7.455678   -2.862531   -2.080161
    104          8           0        3.620076   -5.170547   -2.317117
    105          1           0        3.117296   -3.935077    0.067414
    106          8           0       -6.147892   -3.436835   -4.335565
    107          1           0       -4.084823   -2.760341   -2.684239
    108          1           0       -4.915529   -7.611974   -3.250261
    109          1           0       -3.042670   -6.835308   -1.820738
    110          8           0       -4.320324   -4.263800    0.589950
    111          1           0        0.163032   -6.818441    1.568104
    112          1           0       -0.223196   -5.641875   -0.599912
    113          1           0        5.263844    0.109919    2.658311
    114          1           0        7.089284    0.403456    4.321117
    115          8           0        8.299329   -3.913265    4.126925
    116          1           0        6.226817   -4.059270    2.343937
    117          8           0        3.587759    7.069935    2.097652
    118          1           0        4.064598    5.494416    0.197678
    119          1           0       -0.770127    6.112473    1.042797
    120          1           0       -0.042411    4.634380   -0.803554
    121          1           0       -4.930316   -0.386580    2.090626
    122          1           0       -6.963777   -0.994294    3.370323
    123          8           0       -8.121547    3.425397    3.767335
    124          1           0       -5.983317    3.774500    2.485830
    125          1           0       -1.640463   -6.819785    3.289272
    126          1           0       -8.518593    0.739174    4.182429
    127          1           0        0.871636    7.300343    2.445827
    128          1           0        8.511200   -1.538837    4.982228
    129          6           0       -5.950807   -2.036052   -4.228729
    130          1           0       -4.955615   -1.738758   -4.584870
    131          1           0       -6.079938   -1.685857   -3.196062
    132          1           0       -6.713015   -1.577555   -4.861782
    133          1           0       -3.761469   -5.644795    2.867839
    134          6           0       -5.388865   -4.252389    1.522533
    135          1           0       -5.766792   -5.264957    1.714899
    136          1           0       -6.176938   -3.654131    1.062214
    137          1           0       -5.089440   -3.791458    2.473420
    138          6           0        2.316899   -5.431269   -1.823144
    139          6           0        8.126374   -5.209864    3.577786
    140          1           0        8.895107   -5.833982    4.037436
    141          1           0        8.262209   -5.209248    2.488292
    142          1           0        7.136404   -5.621499    3.815744
    143          1           0        1.856548   -6.113848   -2.540355
    144          1           0        1.718791   -4.513122   -1.758885
    145          1           0        2.347508   -5.913009   -0.835949
    146          6           0        7.796179    3.180869   -4.318591
    147          1           0        8.363127    2.249275   -4.368633
    148          1           0        8.405972    3.950259   -3.826203
    149          1           0        7.555039    3.512191   -5.337627
    150          6           0        3.236137    7.914798    3.180097
    151          1           0        4.178749    8.267097    3.603584
    152          1           0        2.672869    7.372367    3.951249
    153          1           0        2.645357    8.778057    2.845251
    154          6           0       -6.678627    5.042720   -3.191677
    155          6           0       -9.298418    3.146212    4.506628
    156          1           0       -9.753607    4.114891    4.721771
    157          1           0       -9.071908    2.634833    5.451908
    158          1           0      -10.004741    2.535403    3.928485
    159          1           0       -7.636076    4.825801   -3.669407
    160          1           0       -5.874330    4.951231   -3.933927
    161          1           0       -6.693064    6.069984   -2.803535
 ---------------------------------------------------------------------

 SCF Done:  E(UB3LYP) =  -3948.32070463     A.U. after   23 cycles

 Alpha virt. eigenvalues --    0.20204   0.20520   0.20768   0.21017   0.21169
 Alpha virt. eigenvalues --    0.21214   0.21387   0.21424   0.21459   0.21530
 Alpha virt. eigenvalues --    0.21722   0.21824   0.21840   0.22231   0.22465

  Beta  occ. eigenvalues --  -19.24644 -19.23737 -19.23387 -19.23334 -19.23296
  Beta  occ. eigenvalues --  -19.23266 -19.23211 -19.23080 -14.44921 -14.44716
  Beta  occ. eigenvalues --  -14.44527 -14.44484 -10.32510 -10.31731 -10.31692
  Beta  occ. eigenvalues --  -10.31635 -10.31598 -10.31597 -10.31516 -10.31506
  Beta  occ. eigenvalues --  -10.31450 -10.31426 -10.31375 -10.31108 -10.31079
  Beta  occ. eigenvalues --  -10.30658 -10.30533 -10.30455 -10.30401 -10.30278
  Beta  occ. eigenvalues --  -10.30249 -10.30184 -10.29999 -10.29972 -10.29966
  Beta  occ. eigenvalues --  -10.29958 -10.29920 -10.29880 -10.29861 -10.29822
  Beta  occ. eigenvalues --  -10.29769 -10.27932 -10.27915 -10.27842 -10.27822
  Beta  occ. eigenvalues --  -10.27601 -10.27570 -10.27445 -10.27436 -10.27324
  Beta  occ. eigenvalues --  -10.27263 -10.27243 -10.27242 -10.27052 -10.27046
  Beta  occ. eigenvalues --  -10.26991 -10.26975 -10.26957 -10.26946 -10.26864
  Beta  occ. eigenvalues --  -10.26822 -10.26735 -10.26542 -10.26257 -10.26232
  Beta  occ. eigenvalues --  -10.26223 -10.26194 -10.25949 -10.25940 -10.25872
  Beta  occ. eigenvalues --  -10.25854 -10.25786 -10.25575 -10.25414 -10.25410
  Beta  occ. eigenvalues --  -10.25400 -10.25387 -10.25380 -10.25374 -10.25372
  Beta  occ. eigenvalues --  -10.25357 -10.25261 -10.25239 -10.25230 -10.25227
  Beta  occ. eigenvalues --  -10.25210 -10.25162 -10.25095 -10.25081 -10.25058
  Beta  occ. eigenvalues --  -10.25038 -10.24662 -10.24486  -1.14490  -1.13415
  Beta  occ. eigenvalues --   -1.13041  -1.12995  -1.12946  -1.12930  -1.12877
  Beta  occ. eigenvalues --   -1.12702  -1.04741  -1.04642  -1.04582  -1.04359
  Beta  occ. eigenvalues --   -0.98678  -0.95678  -0.93217  -0.93164  -0.92728
  Beta  occ. eigenvalues --   -0.92614  -0.92608  -0.92554  -0.91589  -0.91292
  Beta  occ. eigenvalues --   -0.90644  -0.90581  -0.88821  -0.86689  -0.85413
  Beta  occ. eigenvalues --   -0.83780  -0.83662  -0.83531  -0.83249  -0.83072
  Beta  occ. eigenvalues --   -0.82951  -0.82763  -0.82664  -0.82555  -0.82506
  Beta  occ. eigenvalues --   -0.82312  -0.82198  -0.82171  -0.81965  -0.81825
  Beta  occ. eigenvalues --   -0.81601  -0.81149  -0.79782  -0.79708  -0.77817
  Beta  occ. eigenvalues --   -0.77774  -0.77013  -0.76766  -0.76440  -0.76122
  Beta  occ. eigenvalues --   -0.76053  -0.75897  -0.75867  -0.75583  -0.75480
  Beta  occ. eigenvalues --   -0.72795  -0.72074  -0.70716  -0.70324  -0.70046
  Beta  occ. eigenvalues --   -0.69687  -0.69275  -0.68609  -0.68437  -0.67702
  Beta  occ. eigenvalues --   -0.67362  -0.67156  -0.67049  -0.66927  -0.66677
  Beta  occ. eigenvalues --   -0.66578  -0.66274  -0.65942  -0.65906  -0.65665
  Beta  occ. eigenvalues --   -0.64482  -0.64222  -0.63841  -0.63119  -0.61505
  Beta  occ. eigenvalues --   -0.61449  -0.61281  -0.61242  -0.60938  -0.60884
  Beta  occ. eigenvalues --   -0.60814  -0.59343  -0.59112  -0.58705  -0.58250
  Beta  occ. eigenvalues --   -0.57483  -0.57170  -0.56783  -0.56582  -0.56278
  Beta  occ. eigenvalues --   -0.56238  -0.56129  -0.55963  -0.55809  -0.55480
  Beta  occ. eigenvalues --   -0.55414  -0.55351  -0.55291  -0.55177  -0.55056
  Beta  occ. eigenvalues --   -0.54980  -0.54813  -0.54426  -0.54292  -0.54092
  Beta  occ. eigenvalues --   -0.54037  -0.53753  -0.53692  -0.53472  -0.53226
  Beta  occ. eigenvalues --   -0.53042  -0.52909  -0.52877  -0.52830  -0.52783
  Beta  occ. eigenvalues --   -0.52776  -0.52736  -0.52698  -0.52399  -0.52325
  Beta  occ. eigenvalues --   -0.51825  -0.51751  -0.51589  -0.51500  -0.51112
  Beta  occ. eigenvalues --   -0.50825  -0.50627  -0.50473  -0.50057  -0.50007
  Beta  occ. eigenvalues --   -0.49871  -0.49598  -0.49532  -0.49284  -0.49123
  Beta  occ. eigenvalues --   -0.48747  -0.48667  -0.48552  -0.48501  -0.48208
  Beta  occ. eigenvalues --   -0.48113  -0.47834  -0.47679  -0.47515  -0.47446
  Beta  occ. eigenvalues --   -0.45986  -0.45666  -0.45574  -0.45426  -0.45360
  Beta  occ. eigenvalues --   -0.45276  -0.45105  -0.45020  -0.44964  -0.44820
  Beta  occ. eigenvalues --   -0.44799  -0.44695  -0.44621  -0.44548  -0.44430
  Beta  occ. eigenvalues --   -0.44405  -0.44278  -0.44159  -0.44094  -0.44083
  Beta  occ. eigenvalues --   -0.44048  -0.43759  -0.43692  -0.43515  -0.43457
  Beta  occ. eigenvalues --   -0.43429  -0.43249  -0.43079  -0.42951  -0.42589
  Beta  occ. eigenvalues --   -0.42286  -0.42065  -0.41705  -0.40903  -0.40786
  Beta  occ. eigenvalues --   -0.40443  -0.40309  -0.40221  -0.39912  -0.39782
  Beta  occ. eigenvalues --   -0.39554  -0.39460  -0.39422  -0.39351  -0.39283
  Beta  occ. eigenvalues --   -0.39208  -0.39168  -0.39005  -0.38799  -0.38777
  Beta  occ. eigenvalues --   -0.38329  -0.37991  -0.36695  -0.36380  -0.34952
  Beta  occ. eigenvalues --   -0.34563  -0.34523  -0.33413  -0.33244  -0.33117
  Beta  occ. eigenvalues --   -0.33045  -0.32749  -0.32603  -0.32387  -0.31698
  Beta  occ. eigenvalues --   -0.31003  -0.30031  -0.29740  -0.29421  -0.29134
  Beta  occ. eigenvalues --   -0.28956  -0.28821  -0.28788  -0.28606  -0.26334
  Beta  occ. eigenvalues --   -0.26274  -0.24494
  Beta virt. eigenvalues --   -0.22877  -0.11778  -0.11637  -0.10321  -0.10287
  Beta virt. eigenvalues --   -0.09225  -0.09000  -0.08661  -0.08588  -0.08491
  Beta virt. eigenvalues --   -0.07957  -0.07342  -0.07084  -0.06837  -0.06722

 Mulliken atomic charges:
              1
     1  C   -0.299691
     2  C    0.097917
     3  C    0.045033
     4  C    0.047397
     5  C    0.093575
     6  C    0.096702
     7  C    0.047547
     8  C    0.047792
     9  C    0.099738
    10  C    0.027366
    11  C    0.078178
    12  C    0.074588
    13  C   -0.004884
    14  C   -0.002970
    15  C    0.077374
    16  C    0.083407
    17  C    0.024821
    18  C    0.025652
    19  C    0.112399
    20  C    0.058121
    21  C   -0.004503
    22  C   -0.004889
    23  C    0.064323
    24  C    0.109756
    25  C    0.007986
    26  N   -0.266137
    27  N   -0.263809
    28  N   -0.266767
    29  N   -0.264413
    30  C    0.002753
    31  C   -0.028087
    32  C    0.052985
    33  C    0.081167
    34  C    0.067060
    35  C    0.053352
    36  C    0.048610
    37  C    0.068462
    38  C    0.039198
    39  C    0.061230
    40  C   -0.014561
    41  C    0.137777
    42  C    0.044284
    43  C    0.045566
    44  C    0.137056
    45  C   -0.012846
    46  C    0.048939
    47  C    0.018434
    48  C    0.051181
    49  C    0.139347
    50  C   -0.014173
    51  C    0.056578
    52  C    0.026169
    53  C    0.044688
    54  C    0.136579
    55  C   -0.012112
    56  C    0.047848
    57  C    0.017596
    58  C    0.099833
    59  C    0.043871
    60  C    0.054476
    61  C   -0.010433
    62  C    0.147396
    63  C   -0.009280
    64  C    0.138123
    65  C    0.042724
    66  C    0.066392
    67  C    0.022529
    68  C   -0.014718
    69  C    0.143941
    70  C    0.042590
    71  C    0.067470
    72  C    0.026793
    73  C    0.035865
    74  C    0.069688
    75  C    0.044757
    76  C    0.144088
    77  C    0.018725
    78  H   -0.023450
    79  H   -0.033541
    80  H   -0.009455
    81  H   -0.036689
    82  H   -0.036729
    83  H   -0.012783
    84  H   -0.037765
    85  H   -0.007751
    86  H   -0.037392
    87  H   -0.013834
    88  H   -0.030191
    89  H   -0.032390
    90  H   -0.019464
    91  H   -0.020153
    92  H   -0.022953
    93  H   -0.027083
    94  O   -0.280542
    95  H   -0.025756
    96  H   -0.019684
    97  O   -0.279139
    98  H   -0.016656
    99  H   -0.025838
   100  H   -0.019486
   101  H   -0.028691
   102  H   -0.021047
   103  H   -0.017910
   104  O   -0.272974
   105  H   -0.028097
   106  O   -0.278041
   107  H   -0.029408
   108  H   -0.018964
   109  H   -0.030461
   110  O   -0.274071
   111  H   -0.027604
   112  H   -0.058627
   113  H   -0.032478
   114  H   -0.017574
   115  O   -0.275471
   116  H   -0.031517
   117  O   -0.277901
   118  H   -0.015650
   119  H   -0.018377
   120  H   -0.027926
   121  H   -0.032547
   122  H   -0.027714
   123  O   -0.277453
   124  H   -0.018752
   125  H   -0.019280
   126  H   -0.024875
   127  H   -0.026698
   128  H   -0.016647
   129  C    0.130228
   130  H    0.026106
   131  H    0.028593
   132  H    0.042259
   133  H   -0.020581
   134  C    0.120110
   135  H    0.040482
   136  H    0.045495
   137  H    0.031586
   138  C    0.108008
   139  C    0.126467
   140  H    0.045498
   141  H    0.033702
   142  H    0.029530
   143  H    0.045506
   144  H    0.039159
   145  H    0.033783
   146  C    0.124526
   147  H    0.040280
   148  H    0.033592
   149  H    0.033120
   150  C    0.125007
   151  H    0.043667
   152  H    0.029980
   153  H    0.033558
   154  C    0.125147
   155  C    0.124219
   156  H    0.044154
   157  H    0.031766
   158  H    0.032576
   159  H    0.042741
   160  H    0.029242
   161  H    0.034456
 Sum of Mulliken atomic charges =   1.00000

 Dipole moment (field-independent basis, Debye):
    X=             -1.0564    Y=              1.4507    Z=              1.7001  Tot=              2.4720
 Quadrupole moment (field-independent basis, Debye-Ang):
   XX=           -365.5061   YY=           -404.8904   ZZ=           -454.7824
   XY=             -1.7303   XZ=            -23.1720   YZ=            -19.1547

 Normal termination of Gaussian 09 at Tue Feb  3 21:19:41 2015.
