 Gaussian 09, Revision A.02,
 Gaussian 09:  EM64L-G09RevA.02 11-Jun-2009

 -------------------
 #p sp B3LYP/cc-pVDZ
 -------------------

 ------------------------------------------
 Auto Spiro; and yes I said yes I will Yes.
 ------------------------------------------
 Symbolic Z-matrix:
 Charge =  1 Multiplicity = 2

                         Standard orientation:
 ---------------------------------------------------------------------
 Center     Atomic      Atomic             Coordinates (Angstroms)
 Number     Number       Type             X           Y           Z
 ---------------------------------------------------------------------
      1          6           0       -0.033100    0.060747   -0.001812
      2          6           0       -0.820358    0.962808    0.956441
      3          6           0       -0.538927    0.626776    2.295284
      4          6           0        0.427370   -0.472949    2.312332
      5          6           0        0.737170   -0.825783    0.983991
      6          6           0       -0.918918   -0.727713   -0.974280
      7          6           0       -0.573627   -0.432104   -2.307696
      8          6           0        0.532333    0.526910   -2.307051
      9          6           0        0.865748    0.834899   -0.973448
     10          6           0       -1.945755   -1.608096   -0.673696
     11          6           0       -2.651084   -2.228906   -1.723731
     12          6           0       -2.299820   -1.938042   -3.056637
     13          6           0       -1.275444   -1.041486   -3.350504
     14          6           0        1.036241   -1.161764    3.364158
     15          6           0        1.931299   -2.191856    3.084695
     16          6           0        2.247127   -2.540492    1.756728
     17          6           0        1.638003   -1.838496    0.697493
     18          6           0       -1.711954    1.974079    0.638108
     19          6           0       -2.340905    2.691719    1.675054
     20          6           0       -2.055305    2.358070    3.013783
     21          6           0       -1.168742    1.329841    3.325229
     22          6           0        1.244348    1.125571   -3.349454
     23          6           0        2.267542    2.023036   -3.054567
     24          6           0        2.607727    2.325245   -1.721472
     25          6           0        1.892244    1.716007   -0.672038
     26          7           0       -3.705003   -3.134960   -1.444040
     27          7           0        3.166629   -3.585582    1.488657
     28          7           0       -3.247234    3.738930    1.373045
     29          7           0        3.662172    3.233442   -1.444701
     30          6           0        4.858523    3.187046   -2.214758
     31          6           0       -2.979103    4.629396    0.295036
     32          6           0        3.544537    4.175040   -0.386226
     33          6           0       -4.420187    3.926445    2.155976
     34          6           0       -3.589957   -4.063873   -0.372783
     35          6           0       -4.878048   -3.134774   -2.250270
     36          6           0        4.315349   -3.760559    2.309992
     37          6           0        2.938720   -4.480068    0.405189
     38          6           0        4.698282   -5.032854    2.749736
     39          6           0        5.837375   -5.214010    3.537569
     40          6           0        6.604161   -4.108534    3.920588
     41          6           0        6.221583   -2.828378    3.493665
     42          6           0        5.101962   -2.658337    2.691881
     43          6           0       -4.668352   -4.307737    0.485357
     44          6           0       -4.573783   -5.240618    1.520556
     45          6           0       -3.376556   -5.933133    1.729010
     46          6           0       -2.286184   -5.685311    0.882139
     47          6           0       -2.393802   -4.773025   -0.158332
     48          6           0       -5.435745   -4.332286   -2.711990
     49          6           0       -6.598708   -4.337691   -3.485735
     50          6           0       -7.212304   -3.129087   -3.832014
     51          6           0       -6.653933   -1.923360   -3.382554
     52          6           0       -5.511458   -1.926943   -2.595091
     53          6           0        3.978003   -4.839286   -0.460084
     54          6           0        3.768058   -5.735734   -1.510459
     55          6           0        2.494527   -6.272825   -1.725621
     56          6           0        1.444075   -5.909656   -0.869754
     57          6           0        1.664978   -5.035162    0.185204
     58          6           0       -1.702432    5.172087    0.109602
     59          6           0       -1.433725    6.042011   -0.949801
     60          6           0       -2.456796    6.403267   -1.833680
     61          6           0       -3.741713    5.873136   -1.647554
     62          6           0       -3.995970    4.991886   -0.605989
     63          6           0       -5.217063    2.838806    2.532745
     64          6           0       -6.365743    3.017644    3.306675
     65          6           0       -6.751683    4.304528    3.697147
     66          6           0       -5.966069    5.400997    3.313722
     67          6           0       -4.813063    5.213809    2.564561
     68          6           0        2.340496    4.871780   -0.172045
     69          6           0        2.229003    5.798305    0.855166
     70          6           0        3.322660    6.075023    1.688972
     71          6           0        4.526601    5.394563    1.481573
     72          6           0        4.625628    4.446378    0.460586
     73          6           0        5.479466    1.966882   -2.504869
     74          6           0        6.646503    1.913144   -3.270310
     75          6           0        7.228113    3.095552   -3.740271
     76          6           0        6.619077    4.323960   -3.444080
     77          6           0        5.447061    4.367811   -2.702376
     78          1           0        2.152528    1.937271    0.358419
     79          1           0       -1.932013    2.217704   -0.396538
     80          1           0       -2.534179    2.918533    3.810034
     81          1           0       -0.962821    1.095580    4.366778
     82          1           0        0.808492   -0.914287    4.398044
     83          1           0        2.394153   -2.740943    3.898165
     84          1           0        0.999684    0.910690   -4.386743
     85          1           0        2.816553    2.502100   -3.858884
     86          1           0       -1.022483   -0.835740   -4.387651
     87          1           0       -2.839488   -2.426052   -3.861703
     88          1           0        1.880913   -2.093488   -0.329289
     89          1           0       -2.215068   -1.819865    0.356411
     90          8           0        3.110292    7.015651    2.659269
     91          6           0        4.179540    7.317725    3.538605
     92          8           0       -7.860942    4.597023    4.443285
     93          6           0       -8.693482    3.524466    4.847750
     94          8           0        7.729856   -4.166813    4.696438
     95          8           0       -3.168862   -6.860661    2.712999
     96          6           0       -4.236833   -7.139737    3.601022
     97          6           0        8.152090   -5.436045    5.163494
     98          1           0        6.829091   -1.979072    3.790987
     99          1           0        4.823808   -1.664049    2.356752
    100          1           0       -5.598000   -3.766916    0.338265
    101          1           0       -5.433407   -5.403652    2.160812
    102          1           0        6.102873   -6.216167    3.854839
    103          1           0        4.102019   -5.895092    2.468064
    104          1           0       -1.365313   -6.235964    1.049599
    105          1           0       -1.545398   -4.599280   -0.812894
    106          1           0        5.561138    3.915059    0.317157
    107          1           0        5.389174    5.578353    2.112122
    108          1           0        1.300814    6.336053    1.024710
    109          1           0        1.487925    4.674269   -0.814338
    110          1           0       -6.954178    2.149374    3.581209
    111          1           0       -4.933649    1.838121    2.221766
    112          1           0       -6.272006    6.394109    3.628157
    113          1           0       -4.206847    6.069605    2.284916
    114          1           0       -8.154390    2.810042    5.484925
    115          1           0       -9.112815    2.988700    3.985218
    116          1           0       -9.506497    3.974427    5.421005
    117          1           0       -5.112124   -7.538531    3.070073
    118          1           0       -4.537656   -6.247422    4.166802
    119          1           0       -3.862078   -7.895346    4.294277
    120          1           0        9.052235   -5.255028    5.754257
    121          1           0        8.394823   -6.113944    4.333666
    122          1           0        7.391038   -5.908026    5.799765
    123          1           0        5.047771    7.719239    2.998255
    124          1           0        4.492610    6.435864    4.113909
    125          1           0        3.799726    8.077902    4.224011
    126          1           0       -4.525337    6.155154   -2.344023
    127          1           0       -4.991725    4.578530   -0.479636
    128          1           0       -0.431644    6.440671   -1.061943
    129          1           0       -0.905423    4.905451    0.796831
    130          1           0        5.041948    1.045722   -2.132726
    131          1           0        7.095172    0.948089   -3.477096
    132          1           0        7.076033    5.233905   -3.820867
    133          1           0        4.977816    5.323329   -2.489647
    134          1           0        4.599726   -5.992272   -2.156969
    135          1           0        4.967010   -4.418590   -0.307173
    136          1           0        0.462512   -6.340757   -1.042546
    137          1           0        0.846489   -4.769304    0.846969
    138          1           0       -5.096254   -0.988321   -2.241595
    139          1           0       -7.143716   -0.992377   -3.651059
    140          1           0       -7.002419   -5.286424   -3.821058
    141          1           0       -4.958795   -5.273963   -2.458628
    142          8           0       -2.309366    7.253154   -2.894740
    143          6           0       -1.027366    7.810942   -3.128740
    144          8           0       -8.344892   -3.015541   -4.591262
    145          6           0       -8.943435   -4.204321   -5.076802
    146          8           0        2.173547   -7.149903   -2.725012
    147          6           0        3.195226   -7.532780   -3.628820
    148          8           0        8.372478    3.161908   -4.487088
    149          6           0        9.029158    1.948121   -4.808743
    150          1           0       -1.131575    8.442339   -4.013275
    151          1           0       -0.276865    7.033406   -3.325294
    152          1           0       -0.692414    8.426399   -2.282825
    153          1           0        9.902805    2.226683   -5.401273
    154          1           0        8.386083    1.284147   -5.402421
    155          1           0        9.359037    1.414298   -3.907102
    156          1           0        2.728360   -8.220490   -4.336659
    157          1           0        4.019481   -8.046853   -3.115541
    158          1           0        3.597315   -6.668866   -4.175298
    159          1           0       -9.819106   -3.888887   -5.647487
    160          1           0       -9.263811   -4.861565   -4.256792
    161          1           0       -8.263395   -4.760823   -5.736096
 ---------------------------------------------------------------------

 SCF Done:  E(UB3LYP) =  -3948.32765548     A.U. after   21 cycles

 Alpha virt. eigenvalues --    0.20358   0.20500   0.20922   0.21029   0.21340
 Alpha virt. eigenvalues --    0.21470   0.21502   0.22188   0.22432   0.23432
 Alpha virt. eigenvalues --    0.23907   0.24185   0.24277   0.24510   0.24721

  Beta  occ. eigenvalues --  -19.23503 -19.23431 -19.23422 -19.23393 -19.23207
  Beta  occ. eigenvalues --  -19.23202 -19.23176 -19.23101 -14.43994 -14.43859
  Beta  occ. eigenvalues --  -14.43699 -14.43696 -10.31409 -10.31352 -10.31297
  Beta  occ. eigenvalues --  -10.31273 -10.31141 -10.31140 -10.31098 -10.31042
  Beta  occ. eigenvalues --  -10.30691 -10.30645 -10.30519 -10.30500 -10.30033
  Beta  occ. eigenvalues --  -10.29965 -10.29964 -10.29898 -10.29748 -10.29723
  Beta  occ. eigenvalues --  -10.29692 -10.29599 -10.29401 -10.29394 -10.29373
  Beta  occ. eigenvalues --  -10.29340 -10.29281 -10.29247 -10.29150 -10.29117
  Beta  occ. eigenvalues --  -10.29026 -10.27083 -10.27067 -10.27018 -10.26992
  Beta  occ. eigenvalues --  -10.26704 -10.26650 -10.26588 -10.26545 -10.26545
  Beta  occ. eigenvalues --  -10.26517 -10.26437 -10.26403 -10.26308 -10.26245
  Beta  occ. eigenvalues --  -10.26196 -10.26183 -10.26143 -10.26135 -10.26121
  Beta  occ. eigenvalues --  -10.26120 -10.26084 -10.26080 -10.26070 -10.26020
  Beta  occ. eigenvalues --  -10.25973 -10.25969 -10.25962 -10.25927 -10.25913
  Beta  occ. eigenvalues --  -10.25889 -10.25856 -10.25854 -10.25769 -10.25758
  Beta  occ. eigenvalues --  -10.25743 -10.25740 -10.25726 -10.25714 -10.25649
  Beta  occ. eigenvalues --  -10.25630 -10.25546 -10.25524 -10.25509 -10.25490
  Beta  occ. eigenvalues --  -10.25489 -10.25443 -10.25390 -10.25312 -10.25215
  Beta  occ. eigenvalues --  -10.25124 -10.25112 -10.25100  -1.13056  -1.12968
  Beta  occ. eigenvalues --   -1.12966  -1.12936  -1.12730  -1.12724  -1.12716
  Beta  occ. eigenvalues --   -1.12638  -1.03940  -1.03888  -1.03790  -1.03766
  Beta  occ. eigenvalues --   -0.97833  -0.94874  -0.92616  -0.92537  -0.92503
  Beta  occ. eigenvalues --   -0.92460  -0.92433  -0.92375  -0.91410  -0.91151
  Beta  occ. eigenvalues --   -0.90342  -0.90263  -0.88097  -0.85948  -0.84681
  Beta  occ. eigenvalues --   -0.83329  -0.83202  -0.83142  -0.82983  -0.82664
  Beta  occ. eigenvalues --   -0.82603  -0.82354  -0.82134  -0.82001  -0.81982
  Beta  occ. eigenvalues --   -0.81902  -0.81885  -0.81797  -0.81643  -0.81548
  Beta  occ. eigenvalues --   -0.81312  -0.81104  -0.80079  -0.79978  -0.78305
  Beta  occ. eigenvalues --   -0.78289  -0.76782  -0.76476  -0.76306  -0.76185
  Beta  occ. eigenvalues --   -0.75811  -0.75241  -0.75189  -0.73961  -0.73907
  Beta  occ. eigenvalues --   -0.71656  -0.70858  -0.69820  -0.69167  -0.69110
  Beta  occ. eigenvalues --   -0.68890  -0.68610  -0.68392  -0.68182  -0.68089
  Beta  occ. eigenvalues --   -0.67657  -0.67573  -0.67255  -0.66770  -0.66539
  Beta  occ. eigenvalues --   -0.66308  -0.66241  -0.65665  -0.65544  -0.65482
  Beta  occ. eigenvalues --   -0.63729  -0.63581  -0.63580  -0.62872  -0.60935
  Beta  occ. eigenvalues --   -0.60885  -0.60846  -0.60555  -0.60417  -0.60358
  Beta  occ. eigenvalues --   -0.60326  -0.59534  -0.59385  -0.58968  -0.58940
  Beta  occ. eigenvalues --   -0.58323  -0.58221  -0.58027  -0.57890  -0.57772
  Beta  occ. eigenvalues --   -0.57126  -0.56562  -0.56119  -0.55722  -0.55417
  Beta  occ. eigenvalues --   -0.55353  -0.54666  -0.54474  -0.54379  -0.54224
  Beta  occ. eigenvalues --   -0.53987  -0.53643  -0.52898  -0.52820  -0.52818
  Beta  occ. eigenvalues --   -0.52771  -0.52591  -0.52574  -0.52561  -0.52470
  Beta  occ. eigenvalues --   -0.51875  -0.51756  -0.51713  -0.51673  -0.51638
  Beta  occ. eigenvalues --   -0.51547  -0.51421  -0.51379  -0.51361  -0.51318
  Beta  occ. eigenvalues --   -0.51229  -0.51174  -0.51030  -0.50776  -0.50070
  Beta  occ. eigenvalues --   -0.49826  -0.49669  -0.49607  -0.49127  -0.49100
  Beta  occ. eigenvalues --   -0.49057  -0.49006  -0.48968  -0.48884  -0.48621
  Beta  occ. eigenvalues --   -0.48565  -0.48496  -0.48467  -0.48297  -0.48202
  Beta  occ. eigenvalues --   -0.48045  -0.47998  -0.47886  -0.47777  -0.47668
  Beta  occ. eigenvalues --   -0.47168  -0.47090  -0.46468  -0.46283  -0.45981
  Beta  occ. eigenvalues --   -0.45703  -0.45425  -0.45372  -0.44985  -0.44835
  Beta  occ. eigenvalues --   -0.44731  -0.44670  -0.44648  -0.44628  -0.44591
  Beta  occ. eigenvalues --   -0.44525  -0.44419  -0.44123  -0.44087  -0.43903
  Beta  occ. eigenvalues --   -0.43621  -0.43301  -0.43119  -0.43006  -0.42825
  Beta  occ. eigenvalues --   -0.42791  -0.42677  -0.42436  -0.42367  -0.42309
  Beta  occ. eigenvalues --   -0.41972  -0.41437  -0.40888  -0.40411  -0.40067
  Beta  occ. eigenvalues --   -0.40042  -0.39963  -0.39704  -0.39300  -0.39229
  Beta  occ. eigenvalues --   -0.39209  -0.39173  -0.39055  -0.38998  -0.38982
  Beta  occ. eigenvalues --   -0.38951  -0.38844  -0.38822  -0.38785  -0.38732
  Beta  occ. eigenvalues --   -0.37641  -0.37464  -0.35240  -0.34763  -0.34107
  Beta  occ. eigenvalues --   -0.32988  -0.32936  -0.32803  -0.32699  -0.32635
  Beta  occ. eigenvalues --   -0.32544  -0.32161  -0.32075  -0.32036  -0.31978
  Beta  occ. eigenvalues --   -0.31903  -0.31783  -0.31408  -0.29643  -0.29386
  Beta  occ. eigenvalues --   -0.29279  -0.29244  -0.29209  -0.28936  -0.24638
  Beta  occ. eigenvalues --   -0.24581  -0.23154
  Beta virt. eigenvalues --   -0.21683  -0.11002  -0.10889  -0.09905  -0.09770
  Beta virt. eigenvalues --   -0.09061  -0.08562  -0.07719  -0.07631  -0.07254
  Beta virt. eigenvalues --   -0.07229  -0.07154  -0.07096  -0.07014  -0.06877

 Mulliken atomic charges:
              1
     1  C   -0.301808
     2  C    0.102455
     3  C    0.045756
     4  C    0.044889
     5  C    0.101605
     6  C    0.102016
     7  C    0.045247
     8  C    0.044978
     9  C    0.101252
    10  C    0.020250
    11  C    0.082847
    12  C    0.069037
    13  C   -0.004742
    14  C   -0.004969
    15  C    0.067152
    16  C    0.086928
    17  C    0.019506
    18  C    0.020836
    19  C    0.085530
    20  C    0.067990
    21  C   -0.005123
    22  C   -0.004934
    23  C    0.070479
    24  C    0.078909
    25  C    0.019615
    26  N   -0.263274
    27  N   -0.263007
    28  N   -0.261118
    29  N   -0.263812
    30  C    0.030824
    31  C    0.034307
    32  C    0.046865
    33  C    0.037579
    34  C    0.040283
    35  C    0.032719
    36  C    0.035754
    37  C    0.034317
    38  C    0.044217
    39  C    0.002592
    40  C    0.127326
    41  C    0.055534
    42  C    0.051304
    43  C    0.045763
    44  C    0.003017
    45  C    0.127988
    46  C    0.042766
    47  C    0.048684
    48  C    0.045163
    49  C    0.002634
    50  C    0.127335
    51  C    0.055558
    52  C    0.053003
    53  C    0.048444
    54  C    0.003111
    55  C    0.128444
    56  C    0.043508
    57  C    0.051448
    58  C    0.043249
    59  C   -0.007634
    60  C    0.127945
    61  C    0.057529
    62  C    0.056812
    63  C    0.043902
    64  C    0.003090
    65  C    0.128088
    66  C    0.056768
    67  C    0.051601
    68  C    0.043131
    69  C    0.039872
    70  C    0.128059
    71  C    0.003472
    72  C    0.041891
    73  C    0.045035
    74  C    0.002573
    75  C    0.127150
    76  C    0.056401
    77  C    0.054386
    78  H   -0.035187
    79  H   -0.033609
    80  H   -0.016404
    81  H   -0.039951
    82  H   -0.040130
    83  H   -0.016310
    84  H   -0.040344
    85  H   -0.019229
    86  H   -0.040240
    87  H   -0.017307
    88  H   -0.034453
    89  H   -0.035503
    90  O   -0.274115
    91  C    0.124177
    92  O   -0.272225
    93  C    0.124319
    94  O   -0.274266
    95  O   -0.273884
    96  C    0.124480
    97  C    0.123793
    98  H   -0.019206
    99  H   -0.026603
   100  H   -0.022858
   101  H   -0.023062
   102  H   -0.021230
   103  H   -0.022053
   104  H   -0.018018
   105  H   -0.024500
   106  H   -0.020325
   107  H   -0.021984
   108  H   -0.019482
   109  H   -0.025408
   110  H   -0.024332
   111  H   -0.026569
   112  H   -0.014404
   113  H   -0.019602
   114  H    0.030311
   115  H    0.031113
   116  H    0.045616
   117  H    0.033093
   118  H    0.029865
   119  H    0.043669
   120  H    0.044495
   121  H    0.031664
   122  H    0.032283
   123  H    0.033514
   124  H    0.030707
   125  H    0.043910
   126  H   -0.015104
   127  H   -0.021555
   128  H   -0.022250
   129  H   -0.023589
   130  H   -0.028676
   131  H   -0.025278
   132  H   -0.015957
   133  H   -0.024186
   134  H   -0.022932
   135  H   -0.023976
   136  H   -0.017138
   137  H   -0.024854
   138  H   -0.027291
   139  H   -0.018683
   140  H   -0.021418
   141  H   -0.022862
   142  O   -0.272631
   143  C    0.124628
   144  O   -0.274011
   145  C    0.123927
   146  O   -0.273517
   147  C    0.124378
   148  O   -0.273127
   149  C    0.124843
   150  H    0.044696
   151  H    0.028808
   152  H    0.034280
   153  H    0.045149
   154  H    0.030062
   155  H    0.030439
   156  H    0.044055
   157  H    0.033258
   158  H    0.029864
   159  H    0.044526
   160  H    0.031488
   161  H    0.032122
 Sum of Mulliken atomic charges =   1.00000

 Dipole moment (field-independent basis, Debye):
    X=              1.2915    Y=             -4.1129    Z=              0.8713  Tot=              4.3981
 Quadrupole moment (field-independent basis, Debye-Ang):
   XX=           -338.0169   YY=           -387.0876   ZZ=           -441.8984
   XY=             10.6852   XZ=             -9.7303   YZ=              5.5363

 Normal termination of Gaussian 09 at Tue Jan 27 14:36:39 2015.
