 Gaussian 09, Revision A.02,
 Gaussian 09:  EM64L-G09RevA.02 11-Jun-2009

 -------------------
 #p sp B3LYP/cc-pVDZ
 -------------------

 ------------------------------------------
 Auto Spiro; and yes I said yes I will Yes.
 ------------------------------------------
 Symbolic Z-matrix:
 Charge =  1 Multiplicity = 2

                         Standard orientation:
 ---------------------------------------------------------------------
 Center     Atomic      Atomic             Coordinates (Angstroms)
 Number     Number       Type             X           Y           Z
 ---------------------------------------------------------------------
      1          6           0       -0.000038    0.000107   -0.000075
      2          6           0        0.860731   -0.827995    0.980131
      3          6           0        0.540416   -0.489927    2.309086
      4          6           0       -0.540040    0.490808    2.309066
      5          6           0       -0.860723    0.828412    0.980083
      6          6           0        0.860326    0.828734   -0.980254
      7          6           0        0.539887    0.490871   -2.309231
      8          6           0       -0.540201   -0.490277   -2.309237
      9          6           0       -0.860416   -0.828397   -0.980266
     10          6           0        1.875284    1.741297   -0.710473
     11          6           0        2.589939    2.311525   -1.781238
     12          6           0        2.262647    1.967685   -3.102133
     13          6           0        1.244201    1.060764   -3.370736
     14          6           0       -1.244444    1.060543    3.370592
     15          6           0       -2.263300    1.967001    3.102003
     16          6           0       -2.590935    2.310487    1.781102
     17          6           0       -1.876141    1.740480    0.710315
     18          6           0        1.875965   -1.740274    0.710396
     19          6           0        2.591001   -2.310021    1.781176
     20          6           0        2.263781   -1.965998    3.102046
     21          6           0        1.245086   -1.059351    3.370598
     22          6           0       -1.244648   -1.060017   -3.370731
     23          6           0       -2.262971   -1.967082   -3.102146
     24          6           0       -2.590009   -2.311230   -1.781269
     25          6           0       -1.875245   -1.741115   -0.710510
     26          7           0        3.665227    3.218266   -1.546548
     27          7           0       -3.666793    3.216590    1.546479
     28          7           0        3.666604   -3.216356    1.546544
     29          7           0       -3.665108   -3.218171   -1.546558
     30          6           0       -4.844728   -3.112898   -2.329940
     31          6           0        3.489192   -4.328702    0.685763
     32          6           0       -3.486668   -4.330679   -0.686189
     33          6           0        4.845963   -3.110618    2.330271
     34          6           0        3.487089    4.330696   -0.686031
     35          6           0        4.844804    3.112697   -2.329947
     36          6           0       -4.846115    3.110447    2.330176
     37          6           0       -3.489613    4.328935    0.685661
     38          6           0       -5.325664    4.185840    3.111614
     39          6           0       -6.499916    4.061098    3.866451
     40          6           0       -7.179946    2.846661    3.882499
     41          6           0       -6.720255    1.759270    3.143514
     42          6           0       -5.571983    1.895771    2.353918
     43          6           0        4.380850    4.578763    0.374729
     44          6           0        4.236473    5.712891    1.186510
     45          6           0        3.192783    6.600649    0.940722
     46          6           0        2.294554    6.385965   -0.104860
     47          6           0        2.449926    5.261588   -0.925124
     48          6           0        5.323937    4.188298   -3.111350
     49          6           0        6.498425    4.064135   -3.865916
     50          6           0        7.179117    2.850065   -3.881721
     51          6           0        6.719862    1.762480   -3.142752
     52          6           0        5.571343    1.898418   -2.353413
     53          6           0       -4.383980    4.576242   -0.374768
     54          6           0       -4.240707    5.710327   -1.186802
     55          6           0       -3.197514    6.598827   -0.941597
     56          6           0       -2.298699    6.384901    0.103639
     57          6           0       -2.452952    5.260543    0.924143
     58          6           0        2.452436   -5.260164    0.924405
     59          6           0        2.298026   -6.384596    0.104028
     60          6           0        3.196740   -6.598704   -0.941257
     61          6           0        4.239991   -5.710321   -1.186639
     62          6           0        4.383445   -4.576175   -0.374720
     63          6           0        5.572360   -1.896255    2.353859
     64          6           0        6.720723   -1.760186    3.143398
     65          6           0        7.179923   -2.847704    3.882507
     66          6           0        6.499334   -4.061828    3.866635
     67          6           0        5.325009   -4.186131    3.111830
     68          6           0       -2.449416   -5.261398   -0.925555
     69          6           0       -2.293799   -6.385874   -0.105471
     70          6           0       -3.191851   -6.600799    0.940216
     71          6           0       -4.235602   -5.713192    1.186290
     72          6           0       -4.380235   -4.578973    0.374675
     73          6           0       -5.571633   -1.898831   -2.353305
     74          6           0       -6.720244   -1.763195   -3.142559
     75          6           0       -7.179217   -2.850877   -3.881564
     76          6           0       -6.498150   -4.064735   -3.865872
     77          6           0       -5.323573   -4.188589   -3.111388
     78          1           0       -2.148843   -1.993341    0.309924
     79          1           0        2.149658   -1.992402   -0.310036
     80          1           0        2.814253   -2.429001    3.914674
     81          1           0        1.001041   -0.804636    4.399377
     82          1           0       -1.000083    0.806191    4.399386
     83          1           0       -2.813607    2.430257    3.914598
     84          1           0       -1.000706   -0.805237   -4.399518
     85          1           0       -2.813250   -2.430360   -3.914750
     86          1           0        1.000078    0.806194   -4.399532
     87          1           0        2.812850    2.431075   -3.914724
     88          1           0       -2.150188    1.992213   -0.310119
     89          1           0        2.149096    1.993278    0.309962
     90          1           0       -7.263968    0.822795    3.164527
     91          8           0       -5.074014    0.899391    1.573861
     92          8           0        5.377834    3.657988    0.537536
     93          1           0        4.919829    5.897600    2.006492
     94          1           0       -6.864674    4.891357    4.458890
     95          8           0       -4.568862    5.322097    3.090318
     96          1           0        1.509474    7.106234   -0.302698
     97          8           0        1.671896    4.994429   -2.003809
     98          8           0       -5.377269   -3.658312    0.537776
     99          1           0       -4.918811   -5.898078    2.006355
    100          1           0       -1.508674   -7.106033   -0.303531
    101          8           0       -1.671598   -4.993997   -2.004329
    102          1           0        7.264883   -0.823967    3.164270
    103          8           0        5.074806   -0.899743    1.573723
    104          1           0        6.863718   -4.892174    4.459180
    105          8           0        4.567678   -5.322032    3.090671
    106          1           0        4.923715   -5.894557   -2.006424
    107          8           0        5.379940   -3.654813   -0.537156
    108          1           0        3.084581   -7.477068   -1.571529
    109          1           0        1.513265   -7.105306    0.301515
    110          8           0        1.673790   -4.993460    2.002753
    111          8           0       -5.074299   -0.902128   -1.573266
    112          1           0       -7.264768   -0.827185   -3.163281
    113          1           0       -8.079616   -2.749863   -4.481628
    114          1           0       -6.862379   -4.895230   -4.458304
    115          8           0       -4.565816   -5.324204   -3.090427
    116          1           0       -4.924516    5.894426   -2.006546
    117          8           0       -5.380436    3.654799   -0.537005
    118          1           0       -3.085477    7.477137   -1.571966
    119          1           0       -1.513985    7.105700    0.300983
    120          8           0       -1.674182    4.994028    2.002460
    121          8           0        5.073750    0.901826   -1.573390
    122          1           0        7.264097    0.826305   -3.163579
    123          1           0        8.079439    2.748806   -4.481860
    124          1           0        6.862872    4.894549   -4.458328
    125          8           0        4.566529    5.324144   -3.090262
    126          1           0       -8.080083    2.744958    4.482840
    127          1           0        3.079916    7.478995    1.570893
    128          1           0        8.080128   -2.746346    4.482806
    129          1           0       -3.078797   -7.479223    1.570245
    130          6           0       -4.999076   -6.443869   -3.838632
    131          6           0       -0.629680   -5.891975   -2.345129
    132          6           0        6.403229   -3.933033   -1.476496
    133          6           0        5.613997    0.407037    1.709575
    134          6           0        5.000107    6.443725   -3.838413
    135          6           0        0.630176    5.892697   -2.344429
    136          6           0       -6.403773    3.932824   -1.476347
    137          6           0       -5.612542   -0.407640    1.709955
    138          1           0       -5.981605   -6.803049   -3.503603
    139          1           0       -4.254272   -7.222950   -3.664192
    140          1           0       -5.046590   -6.221774   -4.913517
    141          1           0       -0.175558   -5.483841   -3.249944
    142          1           0       -1.018303   -6.898287   -2.556023
    143          1           0        0.131992   -5.950368   -1.558885
    144          1           0        6.902817   -4.886013   -1.258357
    145          1           0        7.124126   -3.118778   -1.381065
    146          1           0        6.018463   -3.956626   -2.505187
    147          1           0        5.052731    1.040139    1.023744
    148          1           0        6.676301    0.434447    1.428643
    149          1           0        5.506353    0.771897    2.739571
    150          1           0        4.255582    7.223045   -3.663846
    151          1           0        5.047455    6.221699   -4.913319
    152          1           0        5.982786    6.802543   -3.503437
    153          1           0        0.175933    5.484822   -3.249303
    154          1           0        1.019018    6.898959   -2.555163
    155          1           0       -0.131469    5.951131   -1.558160
    156          1           0       -7.124616    3.118535   -1.380785
    157          1           0       -6.019040    3.956306   -2.505053
    158          1           0       -6.903423    4.885798   -1.258324
    159          1           0       -5.051057   -1.040557    1.024135
    160          1           0       -5.504597   -0.772309    2.739985
    161          1           0       -6.674862   -0.435619    1.429140
    162          6           0       -5.613963    0.404461   -1.709104
    163          6           0       -0.634099    5.894022    2.343522
    164          6           0        6.400086    3.936396    1.477937
    165          6           0        5.612997   -0.404926   -1.709326
    166          6           0        0.633739   -5.893401    2.344091
    167          6           0       -6.399373   -3.936959    1.478273
    168          6           0        5.001399   -6.441661    3.838668
    169          6           0       -5.003035    6.441558    3.838298
    170          1           0       -6.676227    0.431524   -1.427991
    171          1           0       -5.506618    0.769293   -2.739140
    172          1           0       -5.052822    1.037803   -1.023403
    173          1           0        5.051731   -1.038119   -1.023592
    174          1           0        6.675279   -0.432328   -1.428315
    175          1           0        5.505439   -0.769694   -2.739363
    176          1           0        4.257055   -7.221105    3.663880
    177          1           0        5.048579   -6.219828    4.913622
    178          1           0        5.984188   -6.800217    3.503737
    179          1           0       -0.128267   -5.953204    1.558270
    180          1           0        0.179335   -5.486138    3.249159
    181          1           0        1.024396   -6.898975    2.554730
    182          1           0       -7.120684   -3.122969    1.383713
    183          1           0       -6.898877   -4.890106    1.260657
    184          1           0       -6.013403   -3.960471    2.506513
    185          1           0        7.121308    3.122352    1.383165
    186          1           0        6.014255    3.959802    2.506232
    187          1           0        6.899661    4.889524    1.260395
    188          1           0       -0.179618    5.486947    3.248637
    189          1           0       -1.024709    6.899650    2.553991
    190          1           0        0.127844    5.953649    1.557623
    191          1           0       -4.259039    7.221323    3.663452
    192          1           0       -5.985996    6.799679    3.503401
    193          1           0       -5.050075    6.219736    4.913261
 ---------------------------------------------------------------------

 SCF Done:  E(UB3LYP) =  -4864.49947260     A.U. after   21 cycles

 Alpha virt. eigenvalues --    0.62992   0.62999   0.63210   0.63230   0.63341
 Alpha virt. eigenvalues --    0.63471   0.63671   0.63757   0.63811   0.63871
 Alpha virt. eigenvalues --    0.64030   0.64046   0.64747   0.64798   0.64938

  Beta  occ. eigenvalues --  -19.23332 -19.23331 -19.23331 -19.23331 -19.22851
  Beta  occ. eigenvalues --  -19.22851 -19.22851 -19.22850 -19.22758 -19.22757
  Beta  occ. eigenvalues --  -19.22756 -19.22756 -19.22726 -19.22725 -19.22725
  Beta  occ. eigenvalues --  -19.22725 -14.42023 -14.42022 -14.42021 -14.42021
  Beta  occ. eigenvalues --  -10.30878 -10.30878 -10.30878 -10.30877 -10.30847
  Beta  occ. eigenvalues --  -10.30847 -10.30846 -10.30846 -10.30613 -10.30613
  Beta  occ. eigenvalues --  -10.30612 -10.30612 -10.30507 -10.30506 -10.30506
  Beta  occ. eigenvalues --  -10.30506 -10.30059 -10.30058 -10.30058 -10.30058
  Beta  occ. eigenvalues --  -10.29541 -10.29541 -10.29540 -10.29540 -10.29437
  Beta  occ. eigenvalues --  -10.29437 -10.29436 -10.29436 -10.28983 -10.28982
  Beta  occ. eigenvalues --  -10.28982 -10.28982 -10.28927 -10.28927 -10.28926
  Beta  occ. eigenvalues --  -10.28925 -10.28240 -10.27847 -10.27847 -10.27846
  Beta  occ. eigenvalues --  -10.27846 -10.27811 -10.27810 -10.27810 -10.27810
  Beta  occ. eigenvalues --  -10.25883 -10.25879 -10.25878 -10.25878 -10.25311
  Beta  occ. eigenvalues --  -10.25310 -10.25307 -10.25307 -10.25307 -10.25306
  Beta  occ. eigenvalues --  -10.25283 -10.25283 -10.25078 -10.25078 -10.25077
  Beta  occ. eigenvalues --  -10.25076 -10.24793 -10.24793 -10.24792 -10.24792
  Beta  occ. eigenvalues --  -10.24769 -10.24769 -10.24768 -10.24768 -10.24666
  Beta  occ. eigenvalues --  -10.24666 -10.24666 -10.24665 -10.24231 -10.24230
  Beta  occ. eigenvalues --  -10.24230 -10.24230 -10.24184 -10.24183 -10.24183
  Beta  occ. eigenvalues --  -10.24183 -10.23779 -10.23779 -10.23778 -10.23778
  Beta  occ. eigenvalues --  -10.23763 -10.23763 -10.23762 -10.23762  -1.13177
  Beta  occ. eigenvalues --   -1.13176  -1.13167  -1.13165  -1.12807  -1.12806
  Beta  occ. eigenvalues --   -1.12805  -1.12803  -1.12628  -1.12627  -1.12592
  Beta  occ. eigenvalues --   -1.12591  -1.12433  -1.12432  -1.12385  -1.12384
  Beta  occ. eigenvalues --   -1.01630  -1.01607  -1.01604  -1.01599  -0.96256
  Beta  occ. eigenvalues --   -0.93532  -0.91292  -0.91270  -0.91193  -0.91192
  Beta  occ. eigenvalues --   -0.91006  -0.90966  -0.90171  -0.89994  -0.89188
  Beta  occ. eigenvalues --   -0.89150  -0.86724  -0.84624  -0.83347  -0.82713
  Beta  occ. eigenvalues --   -0.82674  -0.82647  -0.82643  -0.81758  -0.81711
  Beta  occ. eigenvalues --   -0.81654  -0.81576  -0.81362  -0.81302  -0.81218
  Beta  occ. eigenvalues --   -0.81205  -0.81006  -0.80914  -0.80823  -0.80504
  Beta  occ. eigenvalues --   -0.80322  -0.79489  -0.79333  -0.76983  -0.76931
  Beta  occ. eigenvalues --   -0.76582  -0.76519  -0.76408  -0.76404  -0.76056
  Beta  occ. eigenvalues --   -0.76027  -0.75999  -0.75966  -0.75250  -0.75108
  Beta  occ. eigenvalues --   -0.74994  -0.74922  -0.74503  -0.73990  -0.73930
  Beta  occ. eigenvalues --   -0.73221  -0.73128  -0.70547  -0.69819  -0.68546
  Beta  occ. eigenvalues --   -0.68454  -0.68438  -0.68146  -0.67872  -0.66593
  Beta  occ. eigenvalues --   -0.66566  -0.65670  -0.65056  -0.64962  -0.64814
  Beta  occ. eigenvalues --   -0.64735  -0.64669  -0.64584  -0.64357  -0.64344
  Beta  occ. eigenvalues --   -0.64297  -0.64292  -0.63936  -0.63147  -0.63109
  Beta  occ. eigenvalues --   -0.62516  -0.60729  -0.60591  -0.60586  -0.60481
  Beta  occ. eigenvalues --   -0.59795  -0.59738  -0.59658  -0.59103  -0.58613
  Beta  occ. eigenvalues --   -0.58191  -0.58170  -0.57534  -0.57429  -0.57369
  Beta  occ. eigenvalues --   -0.57368  -0.57044  -0.56847  -0.56629  -0.56400
  Beta  occ. eigenvalues --   -0.56240  -0.56111  -0.55976  -0.55072  -0.54986
  Beta  occ. eigenvalues --   -0.54983  -0.54977  -0.54725  -0.54723  -0.54500
  Beta  occ. eigenvalues --   -0.54468  -0.54456  -0.54393  -0.54372  -0.53914
  Beta  occ. eigenvalues --   -0.53743  -0.53361  -0.53115  -0.52996  -0.52990
  Beta  occ. eigenvalues --   -0.52948  -0.52768  -0.52755  -0.52571  -0.52546
  Beta  occ. eigenvalues --   -0.52347  -0.52345  -0.52316  -0.52212  -0.52198
  Beta  occ. eigenvalues --   -0.52141  -0.51846  -0.51786  -0.51613  -0.51542
  Beta  occ. eigenvalues --   -0.51447  -0.51164  -0.50927  -0.50893  -0.50520
  Beta  occ. eigenvalues --   -0.50390  -0.50354  -0.50311  -0.50295  -0.50187
  Beta  occ. eigenvalues --   -0.50126  -0.50045  -0.49880  -0.49744  -0.49674
  Beta  occ. eigenvalues --   -0.49626  -0.49386  -0.49384  -0.49345  -0.49173
  Beta  occ. eigenvalues --   -0.48377  -0.48096  -0.47029  -0.46962  -0.46934
  Beta  occ. eigenvalues --   -0.46845  -0.46643  -0.46509  -0.46347  -0.46233
  Beta  occ. eigenvalues --   -0.46070  -0.45947  -0.45933  -0.45691  -0.45606
  Beta  occ. eigenvalues --   -0.45450  -0.45335  -0.45095  -0.45024  -0.44917
  Beta  occ. eigenvalues --   -0.44907  -0.44689  -0.44663  -0.44612  -0.44594
  Beta  occ. eigenvalues --   -0.44309  -0.44283  -0.44218  -0.44173  -0.43868
  Beta  occ. eigenvalues --   -0.43663  -0.43656  -0.43599  -0.43162  -0.43160
  Beta  occ. eigenvalues --   -0.43080  -0.43016  -0.43001  -0.42742  -0.42643
  Beta  occ. eigenvalues --   -0.42403  -0.41822  -0.41729  -0.40861  -0.40636
  Beta  occ. eigenvalues --   -0.40609  -0.40566  -0.40435  -0.40249  -0.40248
  Beta  occ. eigenvalues --   -0.40134  -0.40030  -0.39858  -0.39745  -0.39641
  Beta  occ. eigenvalues --   -0.39596  -0.39576  -0.39518  -0.39190  -0.39183
  Beta  occ. eigenvalues --   -0.39033  -0.38845  -0.38741  -0.38713  -0.38643
  Beta  occ. eigenvalues --   -0.38528  -0.38452  -0.38286  -0.38102  -0.37950
  Beta  occ. eigenvalues --   -0.37818  -0.36763  -0.36730  -0.36164  -0.36125
  Beta  occ. eigenvalues --   -0.36084  -0.36078  -0.36005  -0.35957  -0.35869
  Beta  occ. eigenvalues --   -0.35737  -0.34391  -0.34170  -0.32567  -0.31689
  Beta  occ. eigenvalues --   -0.31625  -0.30992  -0.30848  -0.30239  -0.29007
  Beta  occ. eigenvalues --   -0.28923  -0.28904  -0.28807  -0.28522  -0.28232
  Beta  occ. eigenvalues --   -0.28151  -0.27936  -0.27725  -0.27679  -0.27528
  Beta  occ. eigenvalues --   -0.27518  -0.27496  -0.27329  -0.24629  -0.24483
  Beta  occ. eigenvalues --   -0.22822
  Beta virt. eigenvalues --   -0.21172  -0.09432  -0.09323  -0.08235  -0.07983
  Beta virt. eigenvalues --   -0.07544  -0.07307  -0.07244  -0.07067  -0.06310
  Beta virt. eigenvalues --   -0.05578  -0.05409  -0.05213  -0.04678  -0.04420

 Mulliken atomic charges:
              1
     1  C   -0.337912
     2  C    0.103054
     3  C    0.053905
     4  C    0.053922
     5  C    0.103063
     6  C    0.103064
     7  C    0.053912
     8  C    0.053900
     9  C    0.103054
    10  C    0.038621
    11  C    0.139635
    12  C    0.090666
    13  C   -0.012145
    14  C   -0.012138
    15  C    0.090657
    16  C    0.139659
    17  C    0.038607
    18  C    0.038563
    19  C    0.139747
    20  C    0.090604
    21  C   -0.012140
    22  C   -0.012147
    23  C    0.090646
    24  C    0.139669
    25  C    0.038584
    26  N   -0.268314
    27  N   -0.268305
    28  N   -0.268282
    29  N   -0.268314
    30  C    0.054439
    31  C    0.051880
    32  C    0.051889
    33  C    0.054350
    34  C    0.051933
    35  C    0.054460
    36  C    0.054423
    37  C    0.051949
    38  C    0.130565
    39  C   -0.015955
    40  C    0.054711
    41  C   -0.007692
    42  C    0.154133
    43  C    0.133456
    44  C   -0.007840
    45  C    0.052670
    46  C   -0.029909
    47  C    0.160462
    48  C    0.130561
    49  C   -0.015949
    50  C    0.054708
    51  C   -0.007690
    52  C    0.154120
    53  C    0.133441
    54  C   -0.007822
    55  C    0.052669
    56  C   -0.029927
    57  C    0.160451
    58  C    0.160501
    59  C   -0.029939
    60  C    0.052674
    61  C   -0.007821
    62  C    0.133427
    63  C    0.154160
    64  C   -0.007708
    65  C    0.054715
    66  C   -0.015958
    67  C    0.130585
    68  C    0.160482
    69  C   -0.029916
    70  C    0.052672
    71  C   -0.007841
    72  C    0.133459
    73  C    0.154124
    74  C   -0.007698
    75  C    0.054712
    76  C   -0.015950
    77  C    0.130568
    78  H   -0.044091
    79  H   -0.044082
    80  H   -0.030925
    81  H   -0.046036
    82  H   -0.046035
    83  H   -0.030941
    84  H   -0.046035
    85  H   -0.030940
    86  H   -0.046036
    87  H   -0.030947
    88  H   -0.044085
    89  H   -0.044091
    90  H   -0.034930
    91  O   -0.284850
    92  O   -0.286292
    93  H   -0.031196
    94  H   -0.029935
    95  O   -0.283268
    96  H   -0.030386
    97  O   -0.276573
    98  O   -0.286290
    99  H   -0.031198
   100  H   -0.030387
   101  O   -0.276576
   102  H   -0.034924
   103  O   -0.284829
   104  H   -0.029935
   105  O   -0.283266
   106  H   -0.031193
   107  O   -0.286311
   108  H   -0.029803
   109  H   -0.030396
   110  O   -0.276570
   111  O   -0.284844
   112  H   -0.034930
   113  H   -0.026943
   114  H   -0.029938
   115  O   -0.283263
   116  H   -0.031192
   117  O   -0.286309
   118  H   -0.029803
   119  H   -0.030395
   120  O   -0.276574
   121  O   -0.284856
   122  H   -0.034935
   123  H   -0.026943
   124  H   -0.029937
   125  O   -0.283262
   126  H   -0.026939
   127  H   -0.029810
   128  H   -0.026936
   129  H   -0.029812
   130  C    0.130486
   131  C    0.119771
   132  C    0.123421
   133  C    0.092614
   134  C    0.130485
   135  C    0.119779
   136  C    0.123421
   137  C    0.092635
   138  H    0.032388
   139  H    0.036232
   140  H    0.030498
   141  H    0.038248
   142  H    0.025115
   143  H    0.037694
   144  H    0.038780
   145  H    0.038042
   146  H    0.030214
   147  H    0.066641
   148  H    0.026337
   149  H    0.026882
   150  H    0.036234
   151  H    0.030498
   152  H    0.032388
   153  H    0.038251
   154  H    0.025118
   155  H    0.037673
   156  H    0.038044
   157  H    0.030213
   158  H    0.038778
   159  H    0.066642
   160  H    0.026878
   161  H    0.026340
   162  C    0.092627
   163  C    0.119784
   164  C    0.123424
   165  C    0.092630
   166  C    0.119773
   167  C    0.123426
   168  C    0.130475
   169  C    0.130477
   170  H    0.026328
   171  H    0.026879
   172  H    0.066642
   173  H    0.066652
   174  H    0.026328
   175  H    0.026880
   176  H    0.036229
   177  H    0.030504
   178  H    0.032392
   179  H    0.037673
   180  H    0.038248
   181  H    0.025112
   182  H    0.038035
   183  H    0.038778
   184  H    0.030210
   185  H    0.038037
   186  H    0.030210
   187  H    0.038777
   188  H    0.038250
   189  H    0.025117
   190  H    0.037650
   191  H    0.036233
   192  H    0.032389
   193  H    0.030501
 Sum of Mulliken atomic charges =   1.00000

 Dipole moment (field-independent basis, Debye):
    X=              0.0008    Y=             -0.0006    Z=              0.0032  Tot=              0.0033
 Quadrupole moment (field-independent basis, Debye-Ang):
   XX=           -440.9310   YY=           -430.4137   ZZ=           -542.1936
   XY=             -0.0340   XZ=             -0.0019   YZ=             -0.0021

 Normal termination of Gaussian 09 at Tue Jan 27 16:03:31 2015.
