 Gaussian 09, Revision A.02,
 Gaussian 09:  EM64L-G09RevA.02 11-Jun-2009

 -------------------
 #p sp B3LYP/cc-pVDZ
 -------------------

 ------------------------------------------
 Auto Spiro; and yes I said yes I will Yes.
 ------------------------------------------
 Symbolic Z-matrix:
 Charge =  1 Multiplicity = 2

                         Standard orientation:
 ---------------------------------------------------------------------
 Center     Atomic      Atomic             Coordinates (Angstroms)
 Number     Number       Type             X           Y           Z
 ---------------------------------------------------------------------
      1          6           0       -0.038574    0.039905    0.017485
      2          6           0       -0.881721    0.867467    0.993186
      3          6           0       -0.656824    0.440334    2.319610
      4          6           0        0.362486   -0.609770    2.316194
      5          6           0        0.767150   -0.843081    0.989835
      6          6           0       -0.877857   -0.800187   -0.961694
      7          6           0       -0.379038   -0.661720   -2.269524
      8          6           0        0.728580    0.295187   -2.257089
      9          6           0        0.895434    0.781675   -0.945490
     10          6           0       -1.989411   -1.586259   -0.690558
     11          6           0       -2.620094   -2.274790   -1.746255
     12          6           0       -2.079715   -2.180468   -3.045817
     13          6           0       -0.979440   -1.372299   -3.311135
     14          6           0        0.965207   -1.329589    3.349316
     15          6           0        1.973521   -2.244716    3.055900
     16          6           0        2.421473   -2.433773    1.735195
     17          6           0        1.791809   -1.726557    0.690856
     18          6           0       -1.813127    1.854752    0.709311
     19          6           0       -2.537150    2.446550    1.764255
     20          6           0       -2.292934    2.034252    3.084964
     21          6           0       -1.366393    1.031888    3.364589
     22          6           0        1.572866    0.739527   -3.279120
     23          6           0        2.572629    1.661817   -2.982575
     24          6           0        2.739695    2.148371   -1.676557
     25          6           0        1.888199    1.708139   -0.650090
     26          7           0       -3.791219   -3.040291   -1.534061
     27          7           0        3.509407   -3.304025    1.449569
     28          7           0       -3.525479    3.431784    1.482628
     29          7           0        3.808388    3.064986   -1.405503
     30          6           0        5.141604    2.591626   -1.498095
     31          6           0       -3.211326    4.504487    0.599664
     32          6           0        3.517360    4.217611   -0.620904
     33          6           0       -4.611451    3.626000    2.386329
     34          6           0       -4.173371   -3.481173   -0.235175
     35          6           0       -4.781840   -3.115927   -2.556727
     36          6           0        4.427118   -3.684920    2.471739
     37          6           0        3.507529   -4.065381    0.244515
     38          6           0        4.677617   -5.042167    2.720653
     39          6           0        5.581424   -5.446355    3.701639
     40          6           0        6.240861   -4.492443    4.476784
     41          6           0        6.000955   -3.138198    4.244666
     42          6           0        5.119111   -2.723927    3.244911
     43          6           0       -5.406548   -3.103783    0.302694
     44          6           0       -5.832483   -3.569378    1.549188
     45          6           0       -5.001520   -4.408194    2.285595
     46          6           0       -3.762943   -4.799552    1.769579
     47          6           0       -3.349398   -4.362612    0.506630
     48          6           0       -5.302956   -4.376022   -2.940604
     49          6           0       -6.292476   -4.445644   -3.927118
     50          6           0       -6.751909   -3.281851   -4.549723
     51          6           0       -6.235175   -2.040186   -4.188126
     52          6           0       -5.263361   -1.965706   -3.189183
     53          6           0        4.685615   -4.172586   -0.536690
     54          6           0        4.678156   -4.937319   -1.706835
     55          6           0        3.508470   -5.574595   -2.128865
     56          6           0        2.341405   -5.459729   -1.379157
     57          6           0        2.353721   -4.719943   -0.196281
     58          6           0       -1.976841    5.164832    0.679481
     59          6           0       -1.693705    6.263318   -0.130104
     60          6           0       -2.649141    6.727802   -1.036476
     61          6           0       -3.874252    6.069880   -1.140842
     62          6           0       -4.161176    4.959921   -0.343350
     63          6           0       -5.489583    2.555471    2.689066
     64          6           0       -6.550586    2.755960    3.575599
     65          6           0       -6.769471    4.014208    4.144822
     66          6           0       -5.923321    5.075361    3.839579
     67          6           0       -4.847120    4.871572    2.973853
     68          6           0        2.604563    5.178655   -1.118692
     69          6           0        2.308970    6.313915   -0.359996
     70          6           0        2.921419    6.510451    0.882262
     71          6           0        3.828841    5.576190    1.372422
     72          6           0        4.114999    4.434059    0.621808
     73          6           0        5.449122    1.239307   -1.269919
     74          6           0        6.757142    0.766710   -1.366465
     75          6           0        7.800424    1.640351   -1.672943
     76          6           0        7.512320    2.985113   -1.907795
     77          6           0        6.203471    3.462733   -1.842484
     78          1           0        2.030232    2.074838    0.362457
     79          1           0       -2.001765    2.165016   -0.314125
     80          1           0       -2.840941    2.503845    3.895190
     81          1           0       -1.197747    0.727134    4.394501
     82          1           0        0.661557   -1.182277    4.382793
     83          1           0        2.441527   -2.800304    3.860736
     84          1           0        1.454486    0.374748   -4.296404
     85          1           0        3.238476    2.021194   -3.761149
     86          1           0       -0.598956   -1.300915   -4.327214
     87          1           0       -2.545225   -2.735916   -3.852534
     88          1           0        2.118799   -1.865532   -0.334499
     89          1           0       -2.389754   -1.648127    0.316136
     90          1           0        6.497652   -2.367958    4.827445
     91          8           0        4.896574   -1.375766    3.103597
     92          1           0       -6.042521   -2.445898   -0.281980
     93          1           0       -6.802316   -3.271001    1.937391
     94          1           0        5.752115   -6.506235    3.869989
     95          1           0        4.146737   -5.783796    2.131586
     96          1           0       -3.132295   -5.463491    2.349342
     97          8           0       -2.185459   -4.738332   -0.087055
     98          1           0        4.819767    3.695860    0.992922
     99          1           0        4.306981    5.723996    2.336296
    100          1           0        1.623514    7.061736   -0.742668
    101          8           0        2.087496    4.921978   -2.355712
    102          1           0       -7.223634    1.939415    3.810933
    103          8           0       -5.223676    1.369154    2.070894
    104          1           0       -6.084720    6.055525    4.278731
    105          1           0       -4.172724    5.689452    2.740842
    106          1           0       -4.635758    6.398213   -1.841915
    107          8           0       -5.405793    4.392376   -0.466596
    108          1           0       -2.443808    7.593518   -1.660428
    109          1           0       -0.737254    6.766674   -0.025961
    110          1           0       -1.244936    4.814924    1.400939
    111          1           0        4.645161    0.558597   -1.011263
    112          1           0        6.955443   -0.286002   -1.182550
    113          1           0        8.824194    1.282544   -1.737646
    114          1           0        8.294680    3.695339   -2.159640
    115          8           0        5.992013    4.804248   -2.074406
    116          1           0        5.576883   -5.022802   -2.306827
    117          8           0        5.777599   -3.495413   -0.077807
    118          1           0        3.518795   -6.152234   -3.048899
    119          1           0        1.427038   -5.946629   -1.706083
    120          1           0        1.453581   -4.623947    0.401317
    121          1           0       -4.853981   -1.005511   -2.890168
    122          1           0       -6.591514   -1.132631   -4.666586
    123          1           0       -7.514583   -3.356960   -5.319994
    124          1           0       -6.697952   -5.405437   -4.226156
    125          8           0       -4.781304   -5.459128   -2.300432
    126          1           0        6.938200   -4.795991    5.252694
    127          1           0       -5.309312   -4.770961    3.262488
    128          1           0       -7.607352    4.153472    4.822431
    129          1           0        2.686521    7.402925    1.455867
    130          6           0        5.445462    5.110984   -3.359315
    131          6           0        1.123136    5.816139   -2.888906
    132          6           0       -5.436387    3.065710   -1.004882
    133          6           0       -5.989895    0.230851    2.431610
    134          6           0       -5.279180   -6.744290   -2.631201
    135          6           0       -1.364070   -5.677476    0.584738
    136          6           0        7.008035   -3.644958   -0.768380
    137          6           0        5.473006   -0.764189    1.946060
    138          1           0        6.100899    4.741342   -4.159896
    139          1           0        5.391111    6.201201   -3.411531
    140          1           0        4.441016    4.692199   -3.479584
    141          1           0        0.845372    5.405039   -3.861247
    142          1           0        1.539392    6.823391   -3.027606
    143          1           0        0.232300    5.872881   -2.252094
    144          1           0       -6.493722    2.821757   -1.133339
    145          1           0       -4.975732    2.342940   -0.326071
    146          1           0       -4.936058    3.033578   -1.982081
    147          1           0       -5.565378   -0.605929    1.875640
    148          1           0       -7.047061    0.353678    2.159072
    149          1           0       -5.916993    0.025173    3.507355
    150          1           0       -4.728263   -7.446666   -2.003223
    151          1           0       -5.102282   -6.987034   -3.687577
    152          1           0       -6.352449   -6.830829   -2.416040
    153          1           0       -0.535452   -5.885735   -0.093440
    154          1           0       -1.904425   -6.611032    0.791163
    155          1           0       -0.970642   -5.272755    1.526565
    156          1           0        7.737960   -3.063590   -0.202291
    157          1           0        6.947010   -3.254933   -1.793015
    158          1           0        7.326269   -4.694905   -0.799251
    159          1           0        6.569878   -0.804180    1.993830
    160          1           0        5.148538    0.277912    1.960478
    161          1           0        5.135311   -1.246219    1.024905
 ---------------------------------------------------------------------

 SCF Done:  E(UB3LYP) =  -3948.28350103     A.U. after   23 cycles

 Alpha virt. eigenvalues --    0.20122   0.20516   0.21297   0.21479   0.21887
 Alpha virt. eigenvalues --    0.22274   0.22645   0.22719   0.22890   0.23155
 Alpha virt. eigenvalues --    0.23378   0.23472   0.23744   0.23789   0.23851

  Beta  occ. eigenvalues --  -19.25102 -19.24642 -19.24514 -19.24233 -19.24083
  Beta  occ. eigenvalues --  -19.22171 -19.22036 -19.21266 -14.45215 -14.44746
  Beta  occ. eigenvalues --  -14.44426 -14.43445 -10.32804 -10.32335 -10.32127
  Beta  occ. eigenvalues --  -10.31991 -10.31664 -10.31557 -10.31460 -10.31378
  Beta  occ. eigenvalues --  -10.31356 -10.31334 -10.31309 -10.30967 -10.30812
  Beta  occ. eigenvalues --  -10.30673 -10.30560 -10.30546 -10.30498 -10.30409
  Beta  occ. eigenvalues --  -10.30183 -10.29972 -10.29951 -10.29874 -10.29837
  Beta  occ. eigenvalues --  -10.29789 -10.29755 -10.29471 -10.29313 -10.29200
  Beta  occ. eigenvalues --  -10.28694 -10.27909 -10.27901 -10.27717 -10.27642
  Beta  occ. eigenvalues --  -10.27582 -10.27416 -10.27387 -10.27270 -10.27180
  Beta  occ. eigenvalues --  -10.27018 -10.27014 -10.26940 -10.26924 -10.26912
  Beta  occ. eigenvalues --  -10.26875 -10.26861 -10.26835 -10.26756 -10.26684
  Beta  occ. eigenvalues --  -10.26677 -10.26568 -10.26501 -10.26472 -10.26432
  Beta  occ. eigenvalues --  -10.26368 -10.26342 -10.26320 -10.26214 -10.26157
  Beta  occ. eigenvalues --  -10.26091 -10.26088 -10.26005 -10.25930 -10.25834
  Beta  occ. eigenvalues --  -10.25801 -10.25737 -10.25733 -10.25702 -10.25661
  Beta  occ. eigenvalues --  -10.25634 -10.25631 -10.25540 -10.25498 -10.25496
  Beta  occ. eigenvalues --  -10.25481 -10.25477 -10.25447 -10.25345 -10.25332
  Beta  occ. eigenvalues --  -10.25055 -10.25049 -10.24827  -1.14783  -1.14565
  Beta  occ. eigenvalues --   -1.14223  -1.14030  -1.13741  -1.11945  -1.11865
  Beta  occ. eigenvalues --   -1.11089  -1.04550  -1.04283  -1.04203  -1.03394
  Beta  occ. eigenvalues --   -0.98479  -0.95511  -0.93290  -0.92951  -0.92895
  Beta  occ. eigenvalues --   -0.92774  -0.92645  -0.92151  -0.91701  -0.91438
  Beta  occ. eigenvalues --   -0.90864  -0.90499  -0.88698  -0.86544  -0.85234
  Beta  occ. eigenvalues --   -0.83937  -0.83788  -0.83647  -0.83320  -0.83107
  Beta  occ. eigenvalues --   -0.82830  -0.82674  -0.82598  -0.82498  -0.82349
  Beta  occ. eigenvalues --   -0.82261  -0.81981  -0.81852  -0.81828  -0.81659
  Beta  occ. eigenvalues --   -0.81473  -0.81301  -0.79905  -0.79717  -0.78176
  Beta  occ. eigenvalues --   -0.77992  -0.77121  -0.77090  -0.76742  -0.76347
  Beta  occ. eigenvalues --   -0.76335  -0.75790  -0.75248  -0.74781  -0.74322
  Beta  occ. eigenvalues --   -0.72648  -0.71929  -0.70602  -0.70140  -0.69927
  Beta  occ. eigenvalues --   -0.69391  -0.69110  -0.68989  -0.68382  -0.67857
  Beta  occ. eigenvalues --   -0.67320  -0.67248  -0.67104  -0.66859  -0.66689
  Beta  occ. eigenvalues --   -0.66359  -0.66295  -0.66178  -0.65910  -0.65544
  Beta  occ. eigenvalues --   -0.64758  -0.64544  -0.64239  -0.63560  -0.61756
  Beta  occ. eigenvalues --   -0.61630  -0.61321  -0.61012  -0.60867  -0.60620
  Beta  occ. eigenvalues --   -0.60416  -0.59411  -0.59259  -0.58900  -0.58615
  Beta  occ. eigenvalues --   -0.58392  -0.58144  -0.57666  -0.57444  -0.57120
  Beta  occ. eigenvalues --   -0.56889  -0.56737  -0.56471  -0.56252  -0.56050
  Beta  occ. eigenvalues --   -0.55856  -0.55187  -0.54976  -0.54708  -0.54651
  Beta  occ. eigenvalues --   -0.54334  -0.54241  -0.54183  -0.53997  -0.53799
  Beta  occ. eigenvalues --   -0.53654  -0.53607  -0.53505  -0.53262  -0.53031
  Beta  occ. eigenvalues --   -0.52753  -0.52676  -0.52538  -0.52404  -0.52237
  Beta  occ. eigenvalues --   -0.52139  -0.52051  -0.51965  -0.51859  -0.51770
  Beta  occ. eigenvalues --   -0.51643  -0.51463  -0.51377  -0.51240  -0.51182
  Beta  occ. eigenvalues --   -0.51111  -0.50770  -0.50711  -0.50430  -0.50272
  Beta  occ. eigenvalues --   -0.50022  -0.49826  -0.49741  -0.49629  -0.49494
  Beta  occ. eigenvalues --   -0.49280  -0.49183  -0.49053  -0.48831  -0.48675
  Beta  occ. eigenvalues --   -0.48616  -0.48522  -0.48395  -0.47856  -0.47674
  Beta  occ. eigenvalues --   -0.46252  -0.45995  -0.45893  -0.45599  -0.45571
  Beta  occ. eigenvalues --   -0.45449  -0.45307  -0.45196  -0.45077  -0.44995
  Beta  occ. eigenvalues --   -0.44972  -0.44702  -0.44668  -0.44499  -0.44365
  Beta  occ. eigenvalues --   -0.44312  -0.44200  -0.44060  -0.44029  -0.43607
  Beta  occ. eigenvalues --   -0.43585  -0.43397  -0.43209  -0.43165  -0.43134
  Beta  occ. eigenvalues --   -0.42967  -0.42842  -0.42731  -0.42639  -0.42526
  Beta  occ. eigenvalues --   -0.42148  -0.41922  -0.41651  -0.41024  -0.40877
  Beta  occ. eigenvalues --   -0.40688  -0.40530  -0.40359  -0.40190  -0.40107
  Beta  occ. eigenvalues --   -0.39944  -0.39819  -0.39784  -0.39598  -0.39342
  Beta  occ. eigenvalues --   -0.39166  -0.38922  -0.38747  -0.38394  -0.37550
  Beta  occ. eigenvalues --   -0.36674  -0.35233  -0.34854  -0.34656  -0.34490
  Beta  occ. eigenvalues --   -0.33973  -0.33852  -0.33374  -0.33330  -0.32992
  Beta  occ. eigenvalues --   -0.32896  -0.32590  -0.32219  -0.31969  -0.31670
  Beta  occ. eigenvalues --   -0.31278  -0.31060  -0.30723  -0.30440  -0.30334
  Beta  occ. eigenvalues --   -0.29765  -0.29549  -0.29498  -0.29120  -0.26723
  Beta  occ. eigenvalues --   -0.26203  -0.24705
  Beta virt. eigenvalues --   -0.23046  -0.11535  -0.11296  -0.10174  -0.09995
  Beta virt. eigenvalues --   -0.09273  -0.09110  -0.08930  -0.08775  -0.08174
  Beta virt. eigenvalues --   -0.08013  -0.07496  -0.07431  -0.07187  -0.06876

 Mulliken atomic charges:
              1
     1  C   -0.311758
     2  C    0.088623
     3  C    0.051920
     4  C    0.052418
     5  C    0.107196
     6  C    0.098523
     7  C    0.050826
     8  C    0.052019
     9  C    0.088879
    10  C    0.011541
    11  C    0.138549
    12  C    0.067816
    13  C   -0.007476
    14  C   -0.007571
    15  C    0.067358
    16  C    0.115441
    17  C    0.028291
    18  C    0.033669
    19  C    0.118471
    20  C    0.066045
    21  C   -0.008338
    22  C   -0.008746
    23  C    0.111545
    24  C    0.064110
    25  C    0.043852
    26  N   -0.255879
    27  N   -0.266868
    28  N   -0.263349
    29  N   -0.272321
    30  C    0.076101
    31  C    0.023388
    32  C    0.040053
    33  C    0.035504
    34  C    0.035188
    35  C   -0.012958
    36  C    0.077838
    37  C    0.003226
    38  C    0.037429
    39  C    0.052608
    40  C    0.058396
    41  C    0.065109
    42  C    0.060224
    43  C    0.051602
    44  C    0.043238
    45  C    0.052106
    46  C   -0.013576
    47  C    0.154371
    48  C    0.140330
    49  C   -0.006322
    50  C    0.051961
    51  C    0.053076
    52  C    0.064901
    53  C    0.142020
    54  C    0.002480
    55  C    0.052231
    56  C    0.046236
    57  C    0.064714
    58  C    0.043802
    59  C    0.055921
    60  C    0.051741
    61  C    0.064772
    62  C    0.076904
    63  C    0.148290
    64  C   -0.002493
    65  C    0.054461
    66  C    0.054253
    67  C    0.058802
    68  C    0.140027
    69  C   -0.010948
    70  C    0.047240
    71  C    0.054749
    72  C    0.061707
    73  C    0.017748
    74  C    0.048360
    75  C    0.054804
    76  C    0.069356
    77  C    0.060450
    78  H   -0.044595
    79  H   -0.040723
    80  H   -0.013890
    81  H   -0.036530
    82  H   -0.037553
    83  H   -0.007986
    84  H   -0.039249
    85  H   -0.031722
    86  H   -0.040087
    87  H   -0.010508
    88  H   -0.025582
    89  H   -0.031925
    90  H   -0.025520
    91  O   -0.301105
    92  H   -0.028988
    93  H   -0.026180
    94  H   -0.021574
    95  H   -0.024876
    96  H   -0.023229
    97  O   -0.272853
    98  H   -0.030049
    99  H   -0.024032
   100  H   -0.019521
   101  O   -0.288084
   102  H   -0.022790
   103  O   -0.288846
   104  H   -0.020536
   105  H   -0.023783
   106  H   -0.021927
   107  O   -0.292254
   108  H   -0.022813
   109  H   -0.025625
   110  H   -0.025482
   111  H   -0.029482
   112  H   -0.037005
   113  H   -0.025808
   114  H   -0.024101
   115  O   -0.297071
   116  H   -0.018614
   117  O   -0.286573
   118  H   -0.020029
   119  H   -0.024012
   120  H   -0.040593
   121  H   -0.035168
   122  H   -0.024149
   123  H   -0.018547
   124  H   -0.019738
   125  O   -0.275780
   126  H   -0.018051
   127  H   -0.022068
   128  H   -0.019200
   129  H   -0.023780
   130  C    0.122316
   131  C    0.117273
   132  C    0.115541
   133  C    0.113059
   134  C    0.125478
   135  C    0.111333
   136  C    0.118671
   137  C    0.119446
   138  H    0.016641
   139  H    0.036631
   140  H    0.032711
   141  H    0.039510
   142  H    0.034675
   143  H    0.034424
   144  H    0.037147
   145  H    0.040636
   146  H    0.014354
   147  H    0.045625
   148  H    0.033316
   149  H    0.033750
   150  H    0.039930
   151  H    0.034538
   152  H    0.036906
   153  H    0.049010
   154  H    0.035748
   155  H    0.038975
   156  H    0.047514
   157  H    0.037931
   158  H    0.042574
   159  H    0.018627
   160  H    0.035805
   161  H    0.033883
 Sum of Mulliken atomic charges =   1.00000

 Dipole moment (field-independent basis, Debye):
    X=             -1.5954    Y=             -5.0355    Z=             -1.6885  Tot=              5.5455
 Quadrupole moment (field-independent basis, Debye-Ang):
   XX=           -390.0114   YY=           -402.0793   ZZ=           -465.1354
   XY=             -1.1855   XZ=             -7.2442   YZ=             -1.0666

 Normal termination of Gaussian 09 at Tue Jan 27 17:10:05 2015.
