 Gaussian 09, Revision A.02,
 Gaussian 09:  EM64L-G09RevA.02 11-Jun-2009

 -------------------
 #p sp B3LYP/cc-pVDZ
 -------------------

 ------------------------------------------
 Auto Spiro; and yes I said yes I will Yes.
 ------------------------------------------
 Symbolic Z-matrix:
 Charge =  1 Multiplicity = 2

                         Standard orientation:
 ---------------------------------------------------------------------
 Center     Atomic      Atomic             Coordinates (Angstroms)
 Number     Number       Type             X           Y           Z
 ---------------------------------------------------------------------
      1          6           0       -0.059352    0.221691    0.141608
      2          6           0       -0.847829    1.120118    1.104247
      3          6           0       -0.631856    0.719130    2.438920
      4          6           0        0.362018   -0.356917    2.452526
      5          6           0        0.724379   -0.654543    1.124824
      6          6           0       -1.005466   -0.587244   -0.762209
      7          6           0       -0.731401   -0.330294   -2.117810
      8          6           0        0.410540    0.580811   -2.202810
      9          6           0        0.819124    0.926423   -0.898047
     10          6           0       -2.021671   -1.451600   -0.385547
     11          6           0       -2.787451   -2.087106   -1.380810
     12          6           0       -2.514760   -1.826159   -2.737458
     13          6           0       -1.498856   -0.949310   -3.107878
     14          6           0        0.963335   -1.055782    3.501856
     15          6           0        1.913562   -2.034273    3.219102
     16          6           0        2.289783   -2.319182    1.892113
     17          6           0        1.679708   -1.614601    0.835952
     18          6           0       -1.747561    2.130620    0.799560
     19          6           0       -2.467323    2.744752    1.840040
     20          6           0       -2.261841    2.335344    3.168525
     21          6           0       -1.345349    1.330233    3.473449
     22          6           0        1.123024    1.054852   -3.306788
     23          6           0        2.252667    1.841035   -3.099030
     24          6           0        2.683509    2.160021   -1.799041
     25          6           0        1.942203    1.715718   -0.688466
     26          7           0       -3.809234   -3.004052   -1.014873
     27          7           0        3.290727   -3.288180    1.627293
     28          7           0       -3.419256    3.764871    1.541965
     29          7           0        3.897028    2.886058   -1.624842
     30          6           0        5.082277    2.392055   -2.231559
     31          6           0       -2.981515    4.953188    0.901191
     32          6           0        3.910764    4.069868   -0.840859
     33          6           0       -4.776270    3.583871    1.915164
     34          6           0       -3.532402   -3.972306   -0.002705
     35          6           0       -5.064004   -2.994914   -1.669245
     36          6           0        4.431193   -3.373654    2.480235
     37          6           0        3.199005   -4.135794    0.494509
     38          6           0        4.858213   -4.608311    2.978539
     39          6           0        5.981551   -4.704138    3.802651
     40          6           0        6.683825   -3.547660    4.160332
     41          6           0        6.254508   -2.303960    3.673293
     42          6           0        5.150624   -2.220069    2.836612
     43          6           0       -4.422052   -4.178174    1.055985
     44          6           0       -4.161565   -5.133840    2.040883
     45          6           0       -2.982082   -5.885187    1.987902
     46          6           0       -2.078422   -5.674885    0.935800
     47          6           0       -2.354614   -4.737350   -0.049872
     48          6           0       -5.758925   -4.194513   -1.882604
     49          6           0       -7.001876   -4.172081   -2.516811
     50          6           0       -7.570269   -2.972193   -2.967025
     51          6           0       -6.858564   -1.783283   -2.752369
     52          6           0       -5.624112   -1.783577   -2.101743
     53          6           0        4.345360   -4.432613   -0.255403
     54          6           0        4.246861   -5.269623   -1.368334
     55          6           0        3.017786   -5.819905   -1.758536
     56          6           0        1.882563   -5.510587   -0.995684
     57          6           0        1.963252   -4.683792    0.125167
     58          6           0       -1.787295    5.554457    1.321709
     59          6           0       -1.349784    6.724235    0.689877
     60          6           0       -2.091618    7.295933   -0.345532
     61          6           0       -3.284298    6.690291   -0.749777
     62          6           0       -3.737803    5.515626   -0.138404
     63          6           0       -5.376736    2.320806    1.840560
     64          6           0       -6.703851    2.125792    2.230552
     65          6           0       -7.466116    3.206671    2.683547
     66          6           0       -6.876368    4.477101    2.752254
     67          6           0       -5.550800    4.661423    2.385780
     68          6           0        2.857419    4.997461   -0.929648
     69          6           0        2.864671    6.159876   -0.170307
     70          6           0        3.935660    6.435424    0.691770
     71          6           0        4.991252    5.522785    0.788384
     72          6           0        4.967232    4.346976    0.035624
     73          6           0        5.307983    1.007785   -2.270729
     74          6           0        6.465365    0.516936   -2.886766
     75          6           0        7.403577    1.390669   -3.441435
     76          6           0        7.172646    2.767077   -3.385153
     77          6           0        6.012618    3.280456   -2.793198
     78          1           0        2.282495    1.956904    0.314406
     79          1           0       -1.926037    2.438258   -0.226730
     80          1           0       -2.831075    2.817013    3.957981
     81          1           0       -1.193604    1.030084    4.507214
     82          1           0        0.694544   -0.850736    4.535080
     83          1           0        2.379618   -2.586257    4.028618
     84          1           0        0.814011    0.805110   -4.318583
     85          1           0        2.832404    2.201782   -3.942961
     86          1           0       -1.299919   -0.769080   -4.161350
     87          1           0       -3.107082   -2.323802   -3.498286
     88          1           0        1.967153   -1.822051   -0.189571
     89          1           0       -2.232334   -1.646945    0.661384
     90          8           0        3.854229    7.611117    1.394722
     91          6           0        4.925908    7.944358    2.260151
     92          8           0       -8.775707    3.132608    3.079137
     93          6           0       -9.413565    1.869348    3.025897
     94          8           0        7.786419   -3.521822    4.967312
     95          8           0       -2.623913   -6.839345    2.900083
     96          6           0       -3.495094   -7.079848    3.991334
     97          6           0        8.264526   -4.751613    5.485594
     98          1           0        6.813650   -1.416215    3.952059
     99          1           0        4.833331   -1.254741    2.454448
    100          1           0       -5.334227   -3.591665    1.107238
    101          1           0       -4.876565   -5.270334    2.844192
    102          1           0        6.286390   -5.678778    4.166365
    103          1           0        4.309243   -5.506914    2.714377
    104          1           0       -1.168550   -6.264590    0.892405
    105          1           0       -1.646087   -4.594143   -0.859214
    106          1           0        5.785549    3.639870    0.125719
    107          1           0        5.828662    5.702076    1.453469
    108          1           0        2.046264    6.869686   -0.237665
    109          1           0        2.028209    4.802096   -1.602312
    110          1           0       -7.129012    1.131003    2.159104
    111          1           0       -4.801259    1.476287    1.475142
    112          1           0       -7.474106    5.308130    3.114404
    113          1           0       -5.104592    5.647759    2.460387
    114          1           0       -8.916745    1.135802    3.675796
    115          1           0       -9.445893    1.473314    2.001553
    116          1           0      -10.433374    2.031317    3.381047
    117          1           0       -4.481000   -7.428634    3.654599
    118          1           0       -3.625678   -6.182490    4.611324
    119          1           0       -3.021540   -7.862585    4.587258
    120          1           0        9.139402   -4.503005    6.089328
    121          1           0        8.562095   -5.440590    4.683612
    122          1           0        7.514530   -5.242572    6.120427
    123          1           0        5.874615    8.031858    1.713552
    124          1           0        5.043938    7.205482    3.064598
    125          1           0        4.671404    8.912597    2.695732
    126          8           0       -3.940942    7.319946   -1.770452
    127          1           0       -4.649820    5.025820   -0.452928
    128          1           0       -1.752842    8.207417   -0.823955
    129          8           0       -0.208440    7.391497    1.038636
    130          1           0       -1.232244    5.109615    2.136387
    131          1           0        4.586488    0.342476   -1.816955
    132          8           0        6.771448   -0.811023   -2.975288
    133          1           0        8.302532    1.005470   -3.908095
    134          8           0        8.140707    3.545181   -3.958387
    135          1           0        5.812838    4.343177   -2.767425
    136          8           0        5.419903   -5.481138   -2.042153
    137          1           0        5.312125   -4.023386    0.011601
    138          1           0        2.946653   -6.462189   -2.624280
    139          8           0        0.632401   -5.998060   -1.270461
    140          1           0        1.065583   -4.479617    0.696364
    141          1           0       -5.119681   -0.839469   -1.936971
    142          8           0       -7.313281   -0.550957   -3.135643
    143          1           0       -8.529466   -2.963499   -3.463921
    144          8           0       -7.595850   -5.395150   -2.674323
    145          1           0       -5.348683   -5.146229   -1.568668
    146          6           0        7.976557    4.952814   -3.931012
    147          6           0        5.401898   -6.310310   -3.192413
    148          6           0       -8.840403   -5.461668   -3.346915
    149          6           0       -5.167153    6.769857   -2.221782
    150          1           0        8.863752    5.366457   -4.414900
    151          1           0        7.912594    5.334305   -2.903288
    152          1           0        7.082618    5.268629   -4.485423
    153          1           0        6.429662   -6.334359   -3.559358
    154          1           0        4.748110   -5.903652   -3.975473
    155          1           0        5.081069   -7.332056   -2.949258
    156          1           0       -9.113351   -6.518696   -3.367996
    157          1           0       -8.766539   -5.087386   -4.377041
    158          1           0       -9.620529   -4.899069   -2.816042
    159          1           0       -5.519168    7.434650   -3.013261
    160          1           0       -5.915351    6.733487   -1.418914
    161          1           0       -5.032291    5.759874   -2.631416
    162          6           0        0.469076   -6.884799   -2.365733
    163          1           0       -0.589628   -7.149288   -2.378418
    164          1           0        1.069567   -7.795450   -2.240225
    165          1           0        0.733530   -6.404752   -3.317101
    166          6           0        5.866005   -1.748831   -2.410516
    167          1           0        6.294338   -2.736531   -2.588863
    168          1           0        4.877693   -1.692534   -2.885016
    169          1           0        5.750741   -1.597625   -1.329582
    170          6           0        0.484965    6.969911    2.207241
    171          1           0        1.344931    7.634160    2.298476
    172          1           0        0.846309    5.938859    2.113524
    173          1           0       -0.154095    7.053270    3.096208
    174          6           0       -8.572118   -0.462962   -3.778437
    175          1           0       -8.729922    0.597722   -3.983804
    176          1           0       -9.383854   -0.830566   -3.135868
    177          1           0       -8.584764   -1.019148   -4.725671
 ---------------------------------------------------------------------

 SCF Done:  E(UB3LYP) =  -4406.43937703     A.U. after   23 cycles

 Alpha virt. eigenvalues --    0.44487   0.44557   0.44681   0.44687   0.44726
 Alpha virt. eigenvalues --    0.44930   0.45062   0.45108   0.45316   0.45394
 Alpha virt. eigenvalues --    0.45574   0.45582   0.45681   0.45840   0.46010

  Beta  occ. eigenvalues --  -19.23959 -19.23957 -19.23557 -19.23405 -19.23351
  Beta  occ. eigenvalues --  -19.23102 -19.23048 -19.22960 -19.22884 -19.22697
  Beta  occ. eigenvalues --  -19.22652 -19.22600 -14.44112 -14.43847 -14.43621
  Beta  occ. eigenvalues --  -14.43568 -10.31689 -10.31602 -10.31553 -10.31255
  Beta  occ. eigenvalues --  -10.31222 -10.31187 -10.31163 -10.31025 -10.31001
  Beta  occ. eigenvalues --  -10.31000 -10.30966 -10.30963 -10.30770 -10.30750
  Beta  occ. eigenvalues --  -10.30662 -10.30469 -10.30458 -10.30278 -10.30139
  Beta  occ. eigenvalues --  -10.30112 -10.30015 -10.29964 -10.29959 -10.29925
  Beta  occ. eigenvalues --  -10.29923 -10.29920 -10.29729 -10.29668 -10.29552
  Beta  occ. eigenvalues --  -10.29547 -10.29454 -10.29449 -10.29304 -10.29265
  Beta  occ. eigenvalues --  -10.29261 -10.29096 -10.28949 -10.27553 -10.27412
  Beta  occ. eigenvalues --  -10.27401 -10.27282 -10.27185 -10.27176 -10.26957
  Beta  occ. eigenvalues --  -10.26888 -10.26877 -10.26783 -10.26778 -10.26747
  Beta  occ. eigenvalues --  -10.26703 -10.26682 -10.26619 -10.26606 -10.26482
  Beta  occ. eigenvalues --  -10.26411 -10.26226 -10.26205 -10.26191 -10.26061
  Beta  occ. eigenvalues --  -10.25944 -10.25938 -10.25934 -10.25739 -10.25739
  Beta  occ. eigenvalues --  -10.25694 -10.25618 -10.25588 -10.25526 -10.25372
  Beta  occ. eigenvalues --  -10.25302 -10.25250 -10.25038 -10.25002 -10.24972
  Beta  occ. eigenvalues --  -10.24553 -10.24395 -10.24375 -10.24367 -10.24354
  Beta  occ. eigenvalues --  -10.24258 -10.24229 -10.23986 -10.23829 -10.23761
  Beta  occ. eigenvalues --  -10.23706  -1.13421  -1.13286  -1.13049  -1.12891
  Beta  occ. eigenvalues --   -1.12863  -1.12802  -1.12625  -1.12499  -1.12484
  Beta  occ. eigenvalues --   -1.12348  -1.12288  -1.12161  -1.04144  -1.03900
  Beta  occ. eigenvalues --   -1.03835  -1.03821  -0.98166  -0.95206  -0.92811
  Beta  occ. eigenvalues --   -0.92607  -0.92322  -0.92205  -0.92153  -0.92107
  Beta  occ. eigenvalues --   -0.91077  -0.90825  -0.90138  -0.90102  -0.88313
  Beta  occ. eigenvalues --   -0.86153  -0.84914  -0.83369  -0.83247  -0.83231
  Beta  occ. eigenvalues --   -0.83011  -0.82821  -0.82795  -0.82684  -0.82390
  Beta  occ. eigenvalues --   -0.82211  -0.82179  -0.81986  -0.81859  -0.81768
  Beta  occ. eigenvalues --   -0.81531  -0.81503  -0.81224  -0.81149  -0.79777
  Beta  occ. eigenvalues --   -0.79759  -0.78215  -0.78153  -0.77849  -0.77569
  Beta  occ. eigenvalues --   -0.76739  -0.76627  -0.76488  -0.75964  -0.75729
  Beta  occ. eigenvalues --   -0.75273  -0.75247  -0.74573  -0.74204  -0.74013
  Beta  occ. eigenvalues --   -0.73991  -0.72113  -0.71305  -0.70253  -0.69600
  Beta  occ. eigenvalues --   -0.69063  -0.68853  -0.68305  -0.68188  -0.67808
  Beta  occ. eigenvalues --   -0.67511  -0.67297  -0.67139  -0.66775  -0.66507
  Beta  occ. eigenvalues --   -0.66107  -0.66017  -0.65758  -0.65425  -0.64581
  Beta  occ. eigenvalues --   -0.64512  -0.63900  -0.63665  -0.63530  -0.62737
  Beta  occ. eigenvalues --   -0.61294  -0.61103  -0.60903  -0.60892  -0.60744
  Beta  occ. eigenvalues --   -0.60568  -0.60444  -0.59445  -0.59308  -0.58941
  Beta  occ. eigenvalues --   -0.58656  -0.58313  -0.57890  -0.57647  -0.57151
  Beta  occ. eigenvalues --   -0.56686  -0.56666  -0.56444  -0.56044  -0.55853
  Beta  occ. eigenvalues --   -0.55810  -0.55732  -0.55295  -0.55198  -0.55141
  Beta  occ. eigenvalues --   -0.54962  -0.54923  -0.54838  -0.54778  -0.54701
  Beta  occ. eigenvalues --   -0.54421  -0.54295  -0.53918  -0.53839  -0.53523
  Beta  occ. eigenvalues --   -0.53450  -0.53230  -0.53027  -0.52947  -0.52816
  Beta  occ. eigenvalues --   -0.52750  -0.52747  -0.52685  -0.52445  -0.52434
  Beta  occ. eigenvalues --   -0.52268  -0.52161  -0.52003  -0.51903  -0.51893
  Beta  occ. eigenvalues --   -0.51694  -0.51558  -0.51451  -0.51363  -0.51325
  Beta  occ. eigenvalues --   -0.51253  -0.51122  -0.51003  -0.50296  -0.50087
  Beta  occ. eigenvalues --   -0.49789  -0.49504  -0.49307  -0.49220  -0.49138
  Beta  occ. eigenvalues --   -0.49077  -0.48990  -0.48962  -0.48569  -0.48517
  Beta  occ. eigenvalues --   -0.48323  -0.48278  -0.48172  -0.47816  -0.47604
  Beta  occ. eigenvalues --   -0.47425  -0.47200  -0.46899  -0.46836  -0.46440
  Beta  occ. eigenvalues --   -0.46303  -0.46076  -0.45995  -0.45289  -0.45238
  Beta  occ. eigenvalues --   -0.45136  -0.45066  -0.45034  -0.44921  -0.44857
  Beta  occ. eigenvalues --   -0.44787  -0.44728  -0.44617  -0.44532  -0.44466
  Beta  occ. eigenvalues --   -0.44423  -0.44387  -0.44371  -0.44214  -0.44171
  Beta  occ. eigenvalues --   -0.43958  -0.43850  -0.43780  -0.43499  -0.43337
  Beta  occ. eigenvalues --   -0.42928  -0.42760  -0.42591  -0.42559  -0.42252
  Beta  occ. eigenvalues --   -0.41803  -0.41328  -0.41034  -0.40819  -0.40635
  Beta  occ. eigenvalues --   -0.40484  -0.40395  -0.40227  -0.40212  -0.40003
  Beta  occ. eigenvalues --   -0.39882  -0.39818  -0.39746  -0.39529  -0.39372
  Beta  occ. eigenvalues --   -0.39186  -0.39155  -0.39124  -0.39040  -0.38950
  Beta  occ. eigenvalues --   -0.38878  -0.38795  -0.38731  -0.38319  -0.38170
  Beta  occ. eigenvalues --   -0.38060  -0.37821  -0.36849  -0.36754  -0.34661
  Beta  occ. eigenvalues --   -0.33913  -0.33706  -0.33111  -0.32784  -0.32591
  Beta  occ. eigenvalues --   -0.32537  -0.32394  -0.32144  -0.32114  -0.31975
  Beta  occ. eigenvalues --   -0.31675  -0.30443  -0.30048  -0.29646  -0.29287
  Beta  occ. eigenvalues --   -0.29078  -0.28999  -0.28115  -0.28000  -0.27758
  Beta  occ. eigenvalues --   -0.27271  -0.24984  -0.24901  -0.23780
  Beta virt. eigenvalues --   -0.22355  -0.11543  -0.11380  -0.10065  -0.09830
  Beta virt. eigenvalues --   -0.08796  -0.08124  -0.07619  -0.07575  -0.07493
  Beta virt. eigenvalues --   -0.07335  -0.07238  -0.07167  -0.06982  -0.06285

 Mulliken atomic charges:
              1
     1  C   -0.306156
     2  C    0.104896
     3  C    0.051254
     4  C    0.044414
     5  C    0.097452
     6  C    0.112438
     7  C    0.045977
     8  C    0.048222
     9  C    0.094200
    10  C    0.030853
    11  C    0.074879
    12  C    0.080498
    13  C   -0.002280
    14  C   -0.005552
    15  C    0.068703
    16  C    0.088349
    17  C    0.022440
    18  C    0.049533
    19  C    0.032923
    20  C    0.092772
    21  C   -0.005397
    22  C   -0.001309
    23  C    0.093461
    24  C    0.038693
    25  C    0.041917
    26  N   -0.267669
    27  N   -0.269181
    28  N   -0.266831
    29  N   -0.261882
    30  C    0.050355
    31  C    0.042710
    32  C    0.056661
    33  C    0.066228
    34  C    0.026810
    35  C    0.102325
    36  C    0.017864
    37  C    0.081530
    38  C    0.057355
    39  C    0.003375
    40  C    0.128250
    41  C    0.055869
    42  C    0.055604
    43  C    0.060895
    44  C    0.002973
    45  C    0.133208
    46  C    0.041238
    47  C    0.052313
    48  C    0.019944
    49  C    0.140611
    50  C   -0.064972
    51  C    0.140618
    52  C    0.015322
    53  C    0.021679
    54  C    0.139899
    55  C   -0.054502
    56  C    0.140491
    57  C    0.029055
    58  C   -0.004482
    59  C    0.155794
    60  C    0.042727
    61  C    0.157771
    62  C   -0.012119
    63  C    0.035625
    64  C    0.000785
    65  C    0.127473
    66  C    0.054487
    67  C    0.047109
    68  C    0.043111
    69  C    0.045948
    70  C    0.124167
    71  C    0.006544
    72  C    0.040012
    73  C   -0.018584
    74  C    0.156570
    75  C    0.044638
    76  C    0.158003
    77  C   -0.020496
    78  H   -0.042544
    79  H   -0.043426
    80  H   -0.028711
    81  H   -0.038242
    82  H   -0.040318
    83  H   -0.016684
    84  H   -0.036475
    85  H   -0.021796
    86  H   -0.039000
    87  H   -0.016869
    88  H   -0.033277
    89  H   -0.035601
    90  O   -0.280355
    91  C    0.122482
    92  O   -0.272280
    93  C    0.125128
    94  O   -0.273940
    95  O   -0.273366
    96  C    0.124266
    97  C    0.123703
    98  H   -0.019681
    99  H   -0.031081
   100  H   -0.027911
   101  H   -0.023587
   102  H   -0.021159
   103  H   -0.024446
   104  H   -0.016402
   105  H   -0.028709
   106  H   -0.017245
   107  H   -0.020710
   108  H   -0.003792
   109  H   -0.021553
   110  H   -0.025218
   111  H   -0.024644
   112  H   -0.014887
   113  H   -0.014493
   114  H    0.030165
   115  H    0.029421
   116  H    0.044815
   117  H    0.033510
   118  H    0.029321
   119  H    0.043244
   120  H    0.044428
   121  H    0.032920
   122  H    0.031805
   123  H    0.036161
   124  H    0.031128
   125  H    0.045764
   126  O   -0.279966
   127  H   -0.032744
   128  H   -0.019627
   129  O   -0.291232
   130  H   -0.040372
   131  H   -0.034427
   132  O   -0.279858
   133  H   -0.017600
   134  O   -0.279519
   135  H   -0.027948
   136  O   -0.287301
   137  H   -0.020697
   138  H   -0.038635
   139  O   -0.291145
   140  H   -0.022685
   141  H   -0.028851
   142  O   -0.283938
   143  H   -0.039660
   144  O   -0.281076
   145  H   -0.022637
   146  C    0.130048
   147  C    0.129068
   148  C    0.130849
   149  C    0.129921
   150  H    0.042988
   151  H    0.028009
   152  H    0.030556
   153  H    0.044349
   154  H    0.028983
   155  H    0.034038
   156  H    0.041882
   157  H    0.029940
   158  H    0.028761
   159  H    0.041907
   160  H    0.031459
   161  H    0.027397
   162  C    0.128444
   163  H    0.042615
   164  H    0.036154
   165  H    0.031179
   166  C    0.120899
   167  H    0.042885
   168  H    0.026195
   169  H    0.029353
   170  C    0.117556
   171  H    0.044202
   172  H    0.031744
   173  H    0.032614
   174  C    0.131181
   175  H    0.038477
   176  H    0.028467
   177  H    0.031531
 Sum of Mulliken atomic charges =   1.00000

 Dipole moment (field-independent basis, Debye):
    X=             -3.5483    Y=             -3.7272    Z=              1.2630  Tot=              5.2988
 Quadrupole moment (field-independent basis, Debye-Ang):
   XX=           -376.5649   YY=           -436.5897   ZZ=           -494.2938
   XY=             21.3711   XZ=             28.6583   YZ=              6.8240

 Normal termination of Gaussian 09 at Tue Jan 27 18:33:05 2015.
