 Gaussian 09, Revision A.02,
 Gaussian 09:  EM64L-G09RevA.02 11-Jun-2009

 -------------------
 #p sp B3LYP/cc-pVDZ
 -------------------

 ------------------------------------------
 Auto Spiro; and yes I said yes I will Yes.
 ------------------------------------------
 Symbolic Z-matrix:
 Charge =  1 Multiplicity = 2

                         Standard orientation:
 ---------------------------------------------------------------------
 Center     Atomic      Atomic             Coordinates (Angstroms)
 Number     Number       Type             X           Y           Z
 ---------------------------------------------------------------------
      1          6           0       -0.044978   -0.030016   -0.113100
      2          6           0        0.722977   -0.921813    0.869724
      3          6           0        0.412972   -0.573761    2.199242
      4          6           0       -0.552392    0.527180    2.185568
      5          6           0       -0.834772    0.866458    0.847817
      6          6           0        0.859758    0.748170   -1.075572
      7          6           0        0.536319    0.445077   -2.412626
      8          6           0       -0.568733   -0.515585   -2.424020
      9          6           0       -0.925418   -0.812519   -1.094359
     10          6           0        1.883980    1.628013   -0.763846
     11          6           0        2.605637    2.241265   -1.805674
     12          6           0        2.272294    1.949288   -3.142161
     13          6           0        1.252825    1.050600   -3.447895
     14          6           0       -1.181563    1.225860    3.218597
     15          6           0       -2.071062    2.252328    2.910189
     16          6           0       -2.360093    2.586904    1.572999
     17          6           0       -1.731866    1.874293    0.532799
     18          6           0        1.625305   -1.932878    0.580544
     19          6           0        2.231349   -2.637514    1.638540
     20          6           0        1.914796   -2.295034    2.966872
     21          6           0        1.019426   -1.266104    3.250048
     22          6           0       -1.259251   -1.126347   -3.473902
     23          6           0       -2.285074   -2.024096   -3.189704
     24          6           0       -2.651071   -2.311600   -1.860211
     25          6           0       -1.956557   -1.691670   -0.803734
     26          7           0        3.650946    3.156670   -1.508690
     27          7           0       -3.289841    3.619404    1.284229
     28          7           0        3.167989   -3.672872    1.375218
     29          7           0       -3.699695   -3.228581   -1.587511
     30          6           0       -4.882269   -3.228401   -2.373662
     31          6           0        2.949035   -4.606341    0.330230
     32          6           0       -3.566290   -4.151299   -0.510010
     33          6           0        4.349998   -3.760392    2.167312
     34          6           0        3.468650    4.108841   -0.463568
     35          6           0        4.860506    3.134884   -2.247580
     36          6           0       -4.470105    3.735047    2.077546
     37          6           0       -3.071912    4.519695    0.210611
     38          6           0       -4.852715    4.966604    2.618475
     39          6           0       -6.012703    5.088329    3.386555
     40          6           0       -6.798543    3.959727    3.645509
     41          6           0       -6.414906    2.718619    3.116181
     42          6           0       -5.273090    2.610744    2.334824
     43          6           0        4.464658    4.324604    0.494444
     44          6           0        4.296290    5.265477    1.512560
     45          6           0        3.103887    5.992148    1.600731
     46          6           0        2.094049    5.771739    0.652311
     47          6           0        2.278527    4.851236   -0.370226
     48          6           0        5.520728    4.328325   -2.559398
     49          6           0        6.727935    4.310119   -3.267994
     50          6           0        7.282201    3.097946   -3.694765
     51          6           0        6.607541    1.911458   -3.388027
     52          6           0        5.419056    1.911757   -2.669214
     53          6           0       -4.149061    4.970445   -0.559406
     54          6           0       -3.946686    5.880152   -1.604148
     55          6           0       -2.659410    6.337361   -1.906998
     56          6           0       -1.588202    5.871739   -1.137171
     57          6           0       -1.774365    4.983015   -0.085643
     58          6           0        1.659645   -5.079102    0.046923
     59          6           0        1.477192   -6.001612   -0.985033
     60          6           0        2.549858   -6.478255   -1.730080
     61          6           0        3.839812   -6.009612   -1.441979
     62          6           0        4.040766   -5.071902   -0.426617
     63          6           0        5.134803   -2.628655    2.411593
     64          6           0        6.284822   -2.703225    3.201022
     65          6           0        6.680291   -3.931534    3.741982
     66          6           0        5.904520   -5.073749    3.492666
     67          6           0        4.750848   -4.986789    2.726461
     68          6           0       -2.379187   -4.884691   -0.335141
     69          6           0       -2.248175   -5.783431    0.714498
     70          6           0       -3.308301   -5.991345    1.609703
     71          6           0       -4.497394   -5.273665    1.440678
     72          6           0       -4.613200   -4.354258    0.395630
     73          6           0       -5.459687   -2.024661   -2.799271
     74          6           0       -6.622072   -2.054396   -3.572177
     75          6           0       -7.231635   -3.255862   -3.914833
     76          6           0       -6.656794   -4.460543   -3.482884
     77          6           0       -5.483531   -4.451340   -2.725656
     78          1           0       -2.234951   -1.904703    0.223631
     79          1           0        1.870168   -2.185008   -0.446483
     80          1           0        2.379867   -2.846692    3.777451
     81          1           0        0.790471   -1.021690    4.284329
     82          1           0       -0.975622    0.987606    4.259150
     83          1           0       -2.553073    2.808346    3.707590
     84          1           0       -0.995178   -0.921956   -4.508451
     85          1           0       -2.815706   -2.513539   -3.999761
     86          1           0        1.014103    0.841416   -4.487627
     87          1           0        2.823179    2.435432   -3.940771
     88          1           0       -1.957061    2.116702   -0.500918
     89          1           0        2.136697    1.847219    0.268943
     90          8           0       -3.081350   -6.907104    2.598941
     91          6           0       -4.113770   -7.141085    3.541279
     92          8           0        7.789672   -4.123387    4.517971
     93          6           0        8.606606   -3.000975    4.803893
     94          8           0       -7.944016    3.960086    4.391963
     95          8           0        2.828380    6.928384    2.558018
     96          6           0        3.812703    7.181852    3.545550
     97          6           0       -8.378205    5.189469    4.947888
     98          1           0       -7.038061    1.852957    3.318239
     99          1           0       -4.990890    1.648732    1.918402
    100          1           0        5.388185    3.756806    0.439285
    101          1           0        5.093462    5.408485    2.233243
    102          1           0       -6.281026    6.060218    3.784873
    103          1           0       -4.240864    5.843419    2.430264
    104          1           0        1.175278    6.345118    0.729693
    105          1           0        1.493826    4.693337   -1.103716
    106          1           0       -5.534024   -3.791421    0.278566
    107          1           0       -5.331904   -5.405128    2.120179
    108          1           0       -1.332470   -6.349822    0.854757
    109          1           0       -1.554890   -4.737387   -1.026195
    110          1           0        6.865033   -1.803512    3.371912
    111          1           0        4.839522   -1.674874    1.985261
    112          1           0        6.217782   -6.018561    3.926147
    113          1           0        4.149415   -5.873296    2.550783
    114          1           0        8.052147   -2.224947    5.348776
    115          1           0        9.029204   -2.563601    3.889116
    116          1           0        9.418001   -3.372356    5.432791
    117          1           0        4.745751    7.554527    3.101393
    118          1           0        4.031825    6.283731    4.138766
    119          1           0        3.392974    7.950056    4.197858
    120          1           0       -9.296796    4.964706    5.493332
    121          1           0       -8.592908    5.933143    4.168498
    122          1           0       -7.636406    5.603963    5.643973
    123          1           0       -5.022419   -7.527269    3.059525
    124          1           0       -4.364849   -6.230249    4.101406
    125          1           0       -3.725777   -7.892571    4.231563
    126          8           0        4.841194   -6.518742   -2.220868
    127          1           0        5.028857   -4.688336   -0.208124
    128          1           0        2.419095   -7.203566   -2.526161
    129          1           0        0.476711   -6.369432   -1.198859
    130          1           0        0.814734   -4.729870    0.629913
    131          1           0       -5.004768   -1.080075   -2.522424
    132          1           0       -7.067577   -1.117871   -3.897407
    133          1           0       -8.141069   -3.290133   -4.505500
    134          8           0       -7.310163   -5.598170   -3.867552
    135          1           0       -5.018579   -5.373400   -2.401349
    136          8           0       -5.078039    6.249140   -2.278442
    137          1           0       -5.157467    4.625276   -0.362118
    138          1           0       -2.481975    7.038243   -2.713780
    139          1           0       -0.586403    6.231090   -1.359377
    140          1           0       -0.931251    4.647509    0.507886
    141          1           0        4.921772    0.979623   -2.425662
    142          1           0        7.034332    0.964085   -3.707512
    143          1           0        8.213022    3.064191   -4.248000
    144          8           0        7.278540    5.539604   -3.506067
    145          1           0        5.111845    5.285953   -2.258026
    146          6           0       -6.779729   -6.849063   -3.462328
    147          6           0       -4.942106    7.133354   -3.377804
    148          6           0        8.480441    5.600417   -4.254552
    149          6           0        6.170254   -6.090928   -1.974311
    150          1           0       -7.457708   -7.605394   -3.862751
    151          1           0       -6.741680   -6.938303   -2.368465
    152          1           0       -5.773224   -7.013562   -3.869815
    153          1           0       -5.949928    7.278940   -3.771710
    154          1           0       -4.303935    6.707570   -4.163684
    155          1           0       -4.531002    8.104076   -3.069391
    156          1           0        8.729272    6.660336   -4.336507
    157          1           0        8.353215    5.179486   -5.261018
    158          1           0        9.301185    5.074822   -3.747945
    159          1           0        6.795732   -6.632177   -2.686981
    160          1           0        6.491299   -6.332993   -0.952454
    161          1           0        6.285619   -5.011209   -2.139250
 ---------------------------------------------------------------------

 SCF Done:  E(UB3LYP) =  -3948.32700271     A.U. after   23 cycles

 Alpha virt. eigenvalues --    0.20689   0.20738   0.20943   0.21106   0.21258
 Alpha virt. eigenvalues --    0.21427   0.21571   0.21718   0.21926   0.21967
 Alpha virt. eigenvalues --    0.22068   0.22439   0.22936   0.23202   0.23710

  Beta  occ. eigenvalues --  -19.23792 -19.23667 -19.23586 -19.23346 -19.23096
  Beta  occ. eigenvalues --  -19.22994 -19.22918 -19.22857 -14.44308 -14.44195
  Beta  occ. eigenvalues --  -14.44153 -14.44121 -10.31762 -10.31605 -10.31566
  Beta  occ. eigenvalues --  -10.31356 -10.31235 -10.31207 -10.31082 -10.31079
  Beta  occ. eigenvalues --  -10.30996 -10.30970 -10.30947 -10.30912 -10.30223
  Beta  occ. eigenvalues --  -10.30170 -10.30152 -10.30088 -10.30056 -10.30024
  Beta  occ. eigenvalues --  -10.29962 -10.29771 -10.29755 -10.29728 -10.29636
  Beta  occ. eigenvalues --  -10.29576 -10.29552 -10.29511 -10.29494 -10.29416
  Beta  occ. eigenvalues --  -10.29297 -10.27445 -10.27442 -10.27429 -10.27416
  Beta  occ. eigenvalues --  -10.27096 -10.27080 -10.27052 -10.27041 -10.26867
  Beta  occ. eigenvalues --  -10.26832 -10.26828 -10.26825 -10.26640 -10.26617
  Beta  occ. eigenvalues --  -10.26593 -10.26574 -10.26551 -10.26545 -10.26528
  Beta  occ. eigenvalues --  -10.26482 -10.26437 -10.26418 -10.26359 -10.26270
  Beta  occ. eigenvalues --  -10.26269 -10.26115 -10.26049 -10.26043 -10.26037
  Beta  occ. eigenvalues --  -10.25894 -10.25893 -10.25877 -10.25806 -10.25781
  Beta  occ. eigenvalues --  -10.25668 -10.25645 -10.25608 -10.25503 -10.25494
  Beta  occ. eigenvalues --  -10.25323 -10.25130 -10.25039 -10.24973 -10.24968
  Beta  occ. eigenvalues --  -10.24946 -10.24857 -10.24827 -10.24824 -10.24801
  Beta  occ. eigenvalues --  -10.24690 -10.24656 -10.24525  -1.13345  -1.13227
  Beta  occ. eigenvalues --   -1.13131  -1.12888  -1.12724  -1.12647  -1.12540
  Beta  occ. eigenvalues --   -1.12507  -1.04293  -1.04230  -1.04166  -1.04145
  Beta  occ. eigenvalues --   -0.98240  -0.95269  -0.92927  -0.92828  -0.92610
  Beta  occ. eigenvalues --   -0.92515  -0.92436  -0.92397  -0.91384  -0.91124
  Beta  occ. eigenvalues --   -0.90398  -0.90383  -0.88436  -0.86289  -0.85032
  Beta  occ. eigenvalues --   -0.83497  -0.83403  -0.83266  -0.83055  -0.82917
  Beta  occ. eigenvalues --   -0.82683  -0.82457  -0.82355  -0.82185  -0.82161
  Beta  occ. eigenvalues --   -0.82097  -0.82042  -0.82031  -0.81587  -0.81440
  Beta  occ. eigenvalues --   -0.81403  -0.81324  -0.79830  -0.79744  -0.78210
  Beta  occ. eigenvalues --   -0.77954  -0.76875  -0.76550  -0.76199  -0.75717
  Beta  occ. eigenvalues --   -0.75692  -0.75481  -0.75420  -0.74750  -0.74727
  Beta  occ. eigenvalues --   -0.72265  -0.71417  -0.70369  -0.69838  -0.69401
  Beta  occ. eigenvalues --   -0.69191  -0.68684  -0.68467  -0.68184  -0.67981
  Beta  occ. eigenvalues --   -0.67847  -0.67389  -0.67087  -0.66696  -0.66552
  Beta  occ. eigenvalues --   -0.66301  -0.65919  -0.65784  -0.65636  -0.65575
  Beta  occ. eigenvalues --   -0.63938  -0.63924  -0.63649  -0.62802  -0.61149
  Beta  occ. eigenvalues --   -0.61104  -0.61009  -0.60800  -0.60616  -0.60599
  Beta  occ. eigenvalues --   -0.60561  -0.59486  -0.59330  -0.58894  -0.58526
  Beta  occ. eigenvalues --   -0.58397  -0.57911  -0.57507  -0.56514  -0.56386
  Beta  occ. eigenvalues --   -0.56183  -0.56129  -0.55950  -0.55784  -0.55231
  Beta  occ. eigenvalues --   -0.55073  -0.55020  -0.54899  -0.54642  -0.54404
  Beta  occ. eigenvalues --   -0.54237  -0.54132  -0.53926  -0.53657  -0.53410
  Beta  occ. eigenvalues --   -0.53183  -0.53112  -0.53032  -0.52959  -0.52659
  Beta  occ. eigenvalues --   -0.52648  -0.52535  -0.52460  -0.52391  -0.52086
  Beta  occ. eigenvalues --   -0.52077  -0.51967  -0.51858  -0.51718  -0.51561
  Beta  occ. eigenvalues --   -0.51546  -0.51419  -0.51285  -0.51108  -0.50506
  Beta  occ. eigenvalues --   -0.50331  -0.50045  -0.49875  -0.49698  -0.49495
  Beta  occ. eigenvalues --   -0.49369  -0.49246  -0.49216  -0.49062  -0.48734
  Beta  occ. eigenvalues --   -0.48614  -0.48546  -0.48376  -0.48355  -0.48227
  Beta  occ. eigenvalues --   -0.47906  -0.47762  -0.47538  -0.47448  -0.47364
  Beta  occ. eigenvalues --   -0.46798  -0.46648  -0.46528  -0.46199  -0.45389
  Beta  occ. eigenvalues --   -0.45224  -0.45069  -0.44994  -0.44861  -0.44833
  Beta  occ. eigenvalues --   -0.44668  -0.44614  -0.44538  -0.44390  -0.44350
  Beta  occ. eigenvalues --   -0.44271  -0.44090  -0.44031  -0.43822  -0.43726
  Beta  occ. eigenvalues --   -0.43633  -0.43570  -0.43334  -0.43266  -0.43101
  Beta  occ. eigenvalues --   -0.43060  -0.42933  -0.42718  -0.42452  -0.42416
  Beta  occ. eigenvalues --   -0.42192  -0.41728  -0.41272  -0.40570  -0.40379
  Beta  occ. eigenvalues --   -0.40247  -0.40086  -0.39910  -0.39546  -0.39417
  Beta  occ. eigenvalues --   -0.39354  -0.39317  -0.39199  -0.39092  -0.38986
  Beta  occ. eigenvalues --   -0.38882  -0.38856  -0.38839  -0.38705  -0.38637
  Beta  occ. eigenvalues --   -0.37928  -0.37794  -0.36005  -0.35668  -0.34507
  Beta  occ. eigenvalues --   -0.34075  -0.34043  -0.33040  -0.32939  -0.32915
  Beta  occ. eigenvalues --   -0.32710  -0.32374  -0.32229  -0.32054  -0.31512
  Beta  occ. eigenvalues --   -0.31103  -0.30911  -0.30719  -0.29945  -0.29440
  Beta  occ. eigenvalues --   -0.28747  -0.28607  -0.28587  -0.28482  -0.25345
  Beta  occ. eigenvalues --   -0.25329  -0.23841
  Beta virt. eigenvalues --   -0.22321  -0.11460  -0.11363  -0.10091  -0.09988
  Beta virt. eigenvalues --   -0.09053  -0.08493  -0.08053  -0.07973  -0.07850
  Beta virt. eigenvalues --   -0.07792  -0.07552  -0.07459  -0.07231  -0.06589

 Mulliken atomic charges:
              1
     1  C   -0.301980
     2  C    0.100981
     3  C    0.046403
     4  C    0.045884
     5  C    0.101060
     6  C    0.103646
     7  C    0.046262
     8  C    0.046133
     9  C    0.102762
    10  C    0.023596
    11  C    0.076837
    12  C    0.074618
    13  C   -0.003108
    14  C   -0.004834
    15  C    0.071817
    16  C    0.084040
    17  C    0.023929
    18  C    0.026378
    19  C    0.079311
    20  C    0.073522
    21  C   -0.004949
    22  C   -0.002970
    23  C    0.074395
    24  C    0.082494
    25  C    0.021681
    26  N   -0.264875
    27  N   -0.263871
    28  N   -0.263653
    29  N   -0.262082
    30  C    0.048447
    31  C    0.060588
    32  C    0.026729
    33  C    0.018720
    34  C    0.028874
    35  C    0.073301
    36  C    0.018352
    37  C    0.076399
    38  C    0.057765
    39  C    0.004561
    40  C    0.129411
    41  C    0.056215
    42  C    0.059646
    43  C    0.055903
    44  C    0.004471
    45  C    0.129587
    46  C    0.044830
    47  C    0.053481
    48  C    0.035470
    49  C    0.135375
    50  C   -0.016521
    51  C    0.057875
    52  C    0.019743
    53  C    0.038858
    54  C    0.135504
    55  C   -0.013581
    56  C    0.047412
    57  C    0.015358
    58  C    0.010830
    59  C    0.057370
    60  C    0.043468
    61  C    0.141753
    62  C   -0.012436
    63  C    0.049605
    64  C    0.002292
    65  C    0.127882
    66  C    0.056242
    67  C    0.060285
    68  C    0.052853
    69  C    0.044702
    70  C    0.129040
    71  C    0.002762
    72  C    0.051765
    73  C    0.018596
    74  C    0.068882
    75  C    0.042750
    76  C    0.142144
    77  C   -0.008695
    78  H   -0.034152
    79  H   -0.032356
    80  H   -0.017437
    81  H   -0.039156
    82  H   -0.039370
    83  H   -0.016290
    84  H   -0.037314
    85  H   -0.013675
    86  H   -0.037570
    87  H   -0.014544
    88  H   -0.030523
    89  H   -0.035860
    90  O   -0.272059
    91  C    0.123528
    92  O   -0.271975
    93  C    0.124230
    94  O   -0.273019
    95  O   -0.272682
    96  C    0.123881
    97  C    0.122936
    98  H   -0.018300
    99  H   -0.029142
   100  H   -0.023246
   101  H   -0.022100
   102  H   -0.019553
   103  H   -0.022592
   104  H   -0.016996
   105  H   -0.026133
   106  H   -0.020100
   107  H   -0.020344
   108  H   -0.015563
   109  H   -0.024837
   110  H   -0.024081
   111  H   -0.029241
   112  H   -0.013751
   113  H   -0.020121
   114  H    0.030973
   115  H    0.030799
   116  H    0.046380
   117  H    0.034782
   118  H    0.029806
   119  H    0.044414
   120  H    0.045243
   121  H    0.033972
   122  H    0.032428
   123  H    0.033697
   124  H    0.031503
   125  H    0.045413
   126  O   -0.277718
   127  H   -0.024430
   128  H   -0.022372
   129  H   -0.020840
   130  H   -0.027333
   131  H   -0.029263
   132  H   -0.019796
   133  H   -0.019023
   134  O   -0.276703
   135  H   -0.026309
   136  O   -0.278809
   137  H   -0.018287
   138  H   -0.028165
   139  H   -0.020316
   140  H   -0.026953
   141  H   -0.030192
   142  H   -0.023573
   143  H   -0.026033
   144  O   -0.278943
   145  H   -0.018781
   146  C    0.128268
   147  C    0.125525
   148  C    0.125082
   149  C    0.128294
   150  H    0.044169
   151  H    0.029512
   152  H    0.030509
   153  H    0.042645
   154  H    0.029821
   155  H    0.032707
   156  H    0.042583
   157  H    0.031953
   158  H    0.030820
   159  H    0.043412
   160  H    0.033069
   161  H    0.027277
 Sum of Mulliken atomic charges =   1.00000

 Dipole moment (field-independent basis, Debye):
    X=              2.4814    Y=              2.2846    Z=              2.7073  Tot=              4.3251
 Quadrupole moment (field-independent basis, Debye-Ang):
   XX=           -341.8606   YY=           -388.4455   ZZ=           -448.6977
   XY=             10.3215   XZ=            -11.2531   YZ=             -0.6439

 Normal termination of Gaussian 09 at Tue Jan 27 19:37:25 2015.
