 Gaussian 09, Revision A.02,
 Gaussian 09:  EM64L-G09RevA.02 11-Jun-2009

 -------------------
 #p sp B3LYP/cc-pVDZ
 -------------------

 ------------------------------------------
 Auto Spiro; and yes I said yes I will Yes.
 ------------------------------------------
 Symbolic Z-matrix:
 Charge =  1 Multiplicity = 2

                         Standard orientation:
 ---------------------------------------------------------------------
 Center     Atomic      Atomic             Coordinates (Angstroms)
 Number     Number       Type             X           Y           Z
 ---------------------------------------------------------------------
      1          6           0       -0.016548    0.049694    0.162459
      2          6           0        0.763366    0.936178   -0.816087
      3          6           0        0.445383    0.604460   -2.146763
      4          6           0       -0.548835   -0.471886   -2.139903
      5          6           0       -0.819357   -0.829311   -0.805862
      6          6           0        0.878509   -0.734641    1.129269
      7          6           0        0.538061   -0.447617    2.467500
      8          6           0       -0.590425    0.486342    2.475034
      9          6           0       -0.909986    0.820567    1.142579
     10          6           0        1.917219   -1.595348    0.821623
     11          6           0        2.648225   -2.193311    1.865410
     12          6           0        2.319483   -1.897983    3.199383
     13          6           0        1.272279   -1.028313    3.503705
     14          6           0       -1.210528   -1.121757   -3.185625
     15          6           0       -2.128820   -2.125998   -2.889825
     16          6           0       -2.401761   -2.481377   -1.557814
     17          6           0       -1.737924   -1.826453   -0.507637
     18          6           0        1.698273    1.922916   -0.532670
     19          6           0        2.327693    2.593717   -1.593894
     20          6           0        2.004453    2.266380   -2.921452
     21          6           0        1.071296    1.271852   -3.203332
     22          6           0       -1.343133    1.030115    3.517239
     23          6           0       -2.382270    1.914706    3.225693
     24          6           0       -2.681158    2.267300    1.898548
     25          6           0       -1.936125    1.699981    0.847862
     26          7           0        3.713097   -3.081818    1.569892
     27          7           0       -3.346594   -3.510560   -1.264578
     28          7           0        3.292787    3.610721   -1.319775
     29          7           0       -3.727821    3.186455    1.616909
     30          6           0       -4.980212    3.059870    2.272203
     31          6           0        2.858027    4.767033   -0.615183
     32          6           0       -3.549346    4.169658    0.605569
     33          6           0        4.627002    3.493952   -1.757592
     34          6           0        3.556788   -4.072974    0.568110
     35          6           0        4.943546   -2.961305    2.265936
     36          6           0       -4.681874   -3.435178   -1.711286
     37          6           0       -2.879291   -4.665704   -0.578776
     38          6           0       -5.486323   -4.580006   -1.802117
     39          6           0       -6.818616   -4.502693   -2.217052
     40          6           0       -7.377134   -3.271538   -2.568075
     41          6           0       -6.581579   -2.121701   -2.485369
     42          6           0       -5.262856   -2.197607   -2.057843
     43          6           0        4.605280   -4.413537   -0.291836
     44          6           0        4.446100   -5.399605   -1.271560
     45          6           0        3.217080   -6.048699   -1.414426
     46          6           0        2.164279   -5.718329   -0.550533
     47          6           0        2.333517   -4.753654    0.429348
     48          6           0        5.420655   -4.017681    3.072004
     49          6           0        6.646814   -3.908066    3.740155
     50          6           0        7.381634   -2.729252    3.625742
     51          6           0        6.928424   -1.662686    2.852382
     52          6           0        5.714627   -1.781767    2.161435
     53          6           0       -3.196074   -4.877689    0.778670
     54          6           0       -2.740592   -6.022228    1.446700
     55          6           0       -1.959169   -6.946068    0.755279
     56          6           0       -1.624339   -6.761975   -0.584641
     57          6           0       -2.089966   -5.621046   -1.254649
     58          6           0        2.076613    5.743068   -1.270550
     59          6           0        1.640975    6.885164   -0.582224
     60          6           0        1.998725    7.050296    0.754258
     61          6           0        2.773687    6.106083    1.425284
     62          6           0        3.197938    4.960076    0.739642
     63          6           0        5.163728    2.255534   -2.143522
     64          6           0        6.487602    2.139685   -2.577499
     65          6           0        7.316901    3.262839   -2.619527
     66          6           0        6.794508    4.501039   -2.225801
     67          6           0        5.475392    4.618150   -1.809641
     68          6           0       -2.316454    4.834388    0.479325
     69          6           0       -2.120915    5.789752   -0.505555
     70          6           0       -3.156748    6.122906   -1.387578
     71          6           0       -4.393861    5.484775   -1.260731
     72          6           0       -4.579405    4.509959   -0.275952
     73          6           0       -5.703827    1.839738    2.207594
     74          6           0       -6.947196    1.718397    2.836612
     75          6           0       -7.500273    2.814800    3.502299
     76          6           0       -6.816842    4.023700    3.563524
     77          6           0       -5.559609    4.142282    2.963297
     78          1           0       -2.185936    1.944354   -0.179427
     79          1           0        1.970174    2.168847    0.489218
     80          1           0        2.492621    2.809606   -3.723764
     81          1           0        0.829579    1.029714   -4.235316
     82          1           0       -1.007380   -0.859231   -4.220940
     83          1           0       -2.642110   -2.656153   -3.685235
     84          1           0       -1.124264    0.779020    4.552439
     85          1           0       -2.971795    2.341541    4.031448
     86          1           0        1.029700   -0.819285    4.543021
     87          1           0        2.887945   -2.368136    3.995964
     88          1           0       -1.970432   -2.093440    0.518695
     89          1           0        2.187494   -1.802948   -0.208781
     90          8           0       -2.853389    7.074797   -2.330895
     91          6           0       -3.868498    7.442630   -3.247993
     92          8           0        8.630751    3.261529   -3.022664
     93          6           0        9.188953    2.031526   -3.440936
     94          8           0       -8.669403   -3.082416   -2.994789
     95          8           0        2.936650   -7.011228   -2.355209
     96          6           0        3.966515   -7.369757   -3.258163
     97          6           0       -9.498097   -4.222599   -3.108693
     98          1           0       -7.019972   -1.165298   -2.754914
     99          1           0       -4.672906   -1.289910   -1.993392
    100          1           0        5.557942   -3.900885   -0.201363
    101          1           0        5.281910   -5.631539   -1.922472
    102          1           0       -7.400860   -5.416301   -2.269187
    103          1           0       -5.071767   -5.549064   -1.545916
    104          1           0        1.217982   -6.240679   -0.646302
    105          1           0        1.511985   -4.519495    1.097860
    106          1           0       -5.539760    4.010733   -0.195064
    107          1           0       -5.216862    5.719738   -1.926412
    108          1           0       -1.166174    6.297778   -0.593066
    109          1           0       -1.502439    4.590248    1.153971
    110          1           0        6.852622    1.161810   -2.872112
    111          1           0        4.543279    1.366764   -2.112236
    112          1           0        7.440819    5.373085   -2.263655
    113          1           0        5.093856    5.592148   -1.522784
    114          1           0        8.655678    1.614950   -4.307181
    115          1           0        9.187413    1.285982   -2.632881
    116          1           0       10.221018    2.247923   -3.725643
    117          1           0        4.839223   -7.784108   -2.734592
    118          1           0        4.289934   -6.513605   -3.866183
    119          1           0        3.543978   -8.135783   -3.911986
    120          1           0      -10.465491   -3.860255   -3.463415
    121          1           0       -9.634981   -4.726219   -2.141073
    122          1           0       -9.097571   -4.947585   -3.831404
    123          1           0       -4.742339    7.867522   -2.735545
    124          1           0       -4.192946    6.588549   -3.858121
    125          1           0       -3.428959    8.202405   -3.897736
    126          1           0        3.029577    6.259927    2.466379
    127          8           0        3.940164    3.965352    1.304644
    128          1           0        1.665612    7.937399    1.286163
    129          1           0        1.047373    7.641880   -1.080859
    130          8           0        1.806603    5.493418   -2.578649
    131          8           0       -5.111556    0.844615    1.494399
    132          1           0       -7.499768    0.788018    2.782279
    133          1           0       -8.474088    2.716724    3.974123
    134          1           0       -7.228556    4.889899    4.071128
    135          8           0       -4.946993    5.373466    3.007140
    136          1           0       -2.976711   -6.190006    2.490286
    137          8           0       -3.947390   -3.902528    1.365473
    138          1           0       -1.602039   -7.831630    1.273982
    139          1           0       -1.025109   -7.503158   -1.099556
    140          8           0       -1.843520   -5.353081   -2.564040
    141          8           0        5.196667   -0.814272    1.358874
    142          1           0        7.524241   -0.761755    2.771386
    143          1           0        8.328570   -2.640301    4.151418
    144          1           0        7.017130   -4.718328    4.356471
    145          8           0        4.607281   -5.108340    3.143420
    146          6           0       -1.024314   -6.250245   -3.302507
    147          6           0        5.865691    0.436495    1.280219
    148          6           0        1.005851    6.421088   -3.300245
    149          6           0       -5.752908   -0.420719    1.423491
    150          1           0       -0.967048   -5.832062   -4.308976
    151          1           0       -1.470430   -7.252292   -3.352823
    152          1           0       -0.013605   -6.321096   -2.882693
    153          1           0       -6.715378   -0.356044    0.899839
    154          1           0       -5.915860   -0.839839    2.425687
    155          1           0       -5.081386   -1.071227    0.862001
    156          1           0        1.477714    7.411673   -3.340052
    157          1           0       -0.000534    6.511888   -2.874065
    158          1           0        0.932648    6.017852   -4.311799
    159          1           0        5.243724    1.075494    0.652450
    160          1           0        6.857964    0.335549    0.821431
    161          1           0        5.974057    0.891679    2.273755
    162          6           0        5.047023   -6.232785    3.885792
    163          1           0        4.259303   -6.981361    3.783514
    164          1           0        5.181551   -5.990247    4.948567
    165          1           0        5.986524   -6.637971    3.487581
    166          6           0       -4.311254   -4.063617    2.728057
    167          1           0       -4.898439   -3.180279    2.984098
    168          1           0       -3.428939   -4.112237    3.379010
    169          1           0       -4.922771   -4.962837    2.877470
    170          6           0        4.338247    4.109920    2.659371
    171          1           0        4.913722    3.213470    2.895989
    172          1           0        4.970483    4.996013    2.800452
    173          1           0        3.472389    4.170899    3.331148
    174          6           0       -3.789992    5.468945    3.836115
    175          1           0       -4.029242    5.195868    4.873230
    176          1           0       -3.478370    6.515349    3.800118
    177          1           0       -2.973276    4.836704    3.472778
 ---------------------------------------------------------------------

 SCF Done:  E(UB3LYP) =  -4406.41240036     A.U. after   25 cycles

 Alpha virt. eigenvalues --    0.45006   0.45159   0.45220   0.45340   0.45415
 Alpha virt. eigenvalues --    0.45518   0.45627   0.45809   0.46013   0.46092
 Alpha virt. eigenvalues --    0.46211   0.46303   0.46432   0.46487   0.46704

  Beta  occ. eigenvalues --  -19.24253 -19.24181 -19.23930 -19.23901 -19.23763
  Beta  occ. eigenvalues --  -19.23719 -19.23682 -19.23599 -19.23489 -19.22429
  Beta  occ. eigenvalues --  -19.22355 -19.21609 -14.43761 -14.43590 -14.42220
  Beta  occ. eigenvalues --  -14.42200 -10.31915 -10.31871 -10.31785 -10.31716
  Beta  occ. eigenvalues --  -10.31705 -10.31689 -10.31598 -10.31105 -10.30915
  Beta  occ. eigenvalues --  -10.30741 -10.30685 -10.30681 -10.30410 -10.30308
  Beta  occ. eigenvalues --  -10.30300 -10.30187 -10.30158 -10.30052 -10.30037
  Beta  occ. eigenvalues --  -10.29908 -10.29896 -10.29885 -10.29851 -10.29366
  Beta  occ. eigenvalues --  -10.29328 -10.29268 -10.29216 -10.29177 -10.29072
  Beta  occ. eigenvalues --  -10.29069 -10.29057 -10.28869 -10.28785 -10.28725
  Beta  occ. eigenvalues --  -10.28690 -10.28371 -10.28299 -10.26860 -10.26838
  Beta  occ. eigenvalues --  -10.26686 -10.26656 -10.26547 -10.26480 -10.26447
  Beta  occ. eigenvalues --  -10.26443 -10.26232 -10.26182 -10.26155 -10.26136
  Beta  occ. eigenvalues --  -10.26069 -10.26063 -10.25964 -10.25874 -10.25857
  Beta  occ. eigenvalues --  -10.25807 -10.25797 -10.25664 -10.25589 -10.25578
  Beta  occ. eigenvalues --  -10.25557 -10.25547 -10.25540 -10.25532 -10.25492
  Beta  occ. eigenvalues --  -10.25472 -10.25441 -10.25301 -10.25060 -10.24956
  Beta  occ. eigenvalues --  -10.24943 -10.24916 -10.24902 -10.24901 -10.24872
  Beta  occ. eigenvalues --  -10.24817 -10.24758 -10.24750 -10.24683 -10.24665
  Beta  occ. eigenvalues --  -10.24612 -10.24536 -10.24490 -10.24387 -10.24314
  Beta  occ. eigenvalues --  -10.24297  -1.13932  -1.13877  -1.13863  -1.13603
  Beta  occ. eigenvalues --   -1.13577  -1.13451  -1.13330  -1.12966  -1.12772
  Beta  occ. eigenvalues --   -1.11835  -1.11769  -1.11451  -1.03414  -1.03384
  Beta  occ. eigenvalues --   -1.02462  -1.02428  -0.97479  -0.94525  -0.92338
  Beta  occ. eigenvalues --   -0.92254  -0.91990  -0.91977  -0.91791  -0.91566
  Beta  occ. eigenvalues --   -0.91065  -0.90469  -0.90178  -0.89648  -0.87768
  Beta  occ. eigenvalues --   -0.85601  -0.84347  -0.83400  -0.83112  -0.83009
  Beta  occ. eigenvalues --   -0.82813  -0.82474  -0.82338  -0.82246  -0.82238
  Beta  occ. eigenvalues --   -0.82082  -0.81817  -0.81700  -0.81639  -0.81625
  Beta  occ. eigenvalues --   -0.81169  -0.81072  -0.80810  -0.80455  -0.79971
  Beta  occ. eigenvalues --   -0.79460  -0.78257  -0.77494  -0.77177  -0.77136
  Beta  occ. eigenvalues --   -0.77076  -0.76371  -0.76185  -0.75863  -0.75641
  Beta  occ. eigenvalues --   -0.75561  -0.75472  -0.74880  -0.74476  -0.73958
  Beta  occ. eigenvalues --   -0.73557  -0.71375  -0.70693  -0.69859  -0.69441
  Beta  occ. eigenvalues --   -0.68747  -0.68422  -0.67711  -0.67453  -0.67208
  Beta  occ. eigenvalues --   -0.67077  -0.66820  -0.66653  -0.66285  -0.66064
  Beta  occ. eigenvalues --   -0.65826  -0.65623  -0.65360  -0.65245  -0.65056
  Beta  occ. eigenvalues --   -0.64821  -0.63923  -0.63761  -0.63343  -0.62795
  Beta  occ. eigenvalues --   -0.61137  -0.60906  -0.60790  -0.60543  -0.60514
  Beta  occ. eigenvalues --   -0.60185  -0.59731  -0.59529  -0.59007  -0.58919
  Beta  occ. eigenvalues --   -0.58413  -0.58239  -0.57814  -0.57683  -0.57653
  Beta  occ. eigenvalues --   -0.57499  -0.57463  -0.57289  -0.56889  -0.56823
  Beta  occ. eigenvalues --   -0.56636  -0.55924  -0.55569  -0.55551  -0.55442
  Beta  occ. eigenvalues --   -0.54876  -0.54490  -0.54414  -0.54252  -0.53975
  Beta  occ. eigenvalues --   -0.53703  -0.53612  -0.53519  -0.53472  -0.53275
  Beta  occ. eigenvalues --   -0.53176  -0.53037  -0.53020  -0.52876  -0.52851
  Beta  occ. eigenvalues --   -0.52641  -0.52125  -0.52054  -0.51928  -0.51803
  Beta  occ. eigenvalues --   -0.51785  -0.51624  -0.51496  -0.51461  -0.51328
  Beta  occ. eigenvalues --   -0.51157  -0.51150  -0.50970  -0.50907  -0.50838
  Beta  occ. eigenvalues --   -0.50783  -0.50719  -0.50623  -0.50560  -0.50451
  Beta  occ. eigenvalues --   -0.50295  -0.50094  -0.49652  -0.49251  -0.49067
  Beta  occ. eigenvalues --   -0.48918  -0.48299  -0.48202  -0.48131  -0.48005
  Beta  occ. eigenvalues --   -0.47921  -0.47841  -0.47667  -0.47525  -0.47342
  Beta  occ. eigenvalues --   -0.47291  -0.47024  -0.46896  -0.46706  -0.46505
  Beta  occ. eigenvalues --   -0.46258  -0.46143  -0.45826  -0.45766  -0.45545
  Beta  occ. eigenvalues --   -0.45476  -0.45341  -0.45146  -0.45051  -0.44908
  Beta  occ. eigenvalues --   -0.44877  -0.44755  -0.44739  -0.44418  -0.44273
  Beta  occ. eigenvalues --   -0.44192  -0.44109  -0.43956  -0.43832  -0.43669
  Beta  occ. eigenvalues --   -0.43614  -0.43553  -0.43404  -0.43060  -0.42502
  Beta  occ. eigenvalues --   -0.42463  -0.42410  -0.41999  -0.41461  -0.41335
  Beta  occ. eigenvalues --   -0.41281  -0.41132  -0.41091  -0.41013  -0.40978
  Beta  occ. eigenvalues --   -0.40698  -0.40582  -0.40556  -0.40425  -0.39898
  Beta  occ. eigenvalues --   -0.39768  -0.39699  -0.39576  -0.39426  -0.39321
  Beta  occ. eigenvalues --   -0.39196  -0.39075  -0.38933  -0.38797  -0.38765
  Beta  occ. eigenvalues --   -0.38210  -0.38128  -0.37940  -0.37179  -0.37151
  Beta  occ. eigenvalues --   -0.37078  -0.37019  -0.35754  -0.35373  -0.33909
  Beta  occ. eigenvalues --   -0.33803  -0.33270  -0.32865  -0.32557  -0.32268
  Beta  occ. eigenvalues --   -0.32057  -0.31857  -0.31574  -0.31311  -0.31125
  Beta  occ. eigenvalues --   -0.31099  -0.30515  -0.29925  -0.29873  -0.29495
  Beta  occ. eigenvalues --   -0.28952  -0.28769  -0.28691  -0.28677  -0.28588
  Beta  occ. eigenvalues --   -0.28143  -0.24795  -0.23946  -0.23362
  Beta virt. eigenvalues --   -0.21953  -0.10852  -0.10680  -0.09399  -0.09000
  Beta virt. eigenvalues --   -0.08245  -0.07827  -0.07639  -0.07556  -0.07355
  Beta virt. eigenvalues --   -0.07259  -0.06921  -0.06439  -0.06297  -0.05855

 Mulliken atomic charges:
              1
     1  C   -0.303478
     2  C    0.101527
     3  C    0.050929
     4  C    0.050201
     5  C    0.104488
     6  C    0.101520
     7  C    0.047735
     8  C    0.046547
     9  C    0.101002
    10  C    0.044585
    11  C    0.102836
    12  C    0.078218
    13  C   -0.011978
    14  C   -0.008853
    15  C    0.107685
    16  C    0.048939
    17  C    0.050546
    18  C    0.051911
    19  C    0.043638
    20  C    0.110956
    21  C   -0.009172
    22  C   -0.012220
    23  C    0.068698
    24  C    0.107287
    25  C    0.044698
    26  N   -0.257224
    27  N   -0.273365
    28  N   -0.273212
    29  N   -0.265516
    30  C    0.034335
    31  C   -0.019427
    32  C    0.086245
    33  C    0.134037
    34  C    0.093517
    35  C   -0.005063
    36  C    0.129353
    37  C   -0.018686
    38  C    0.025319
    39  C   -0.004191
    40  C    0.122016
    41  C    0.044788
    42  C    0.016603
    43  C    0.038820
    44  C    0.003328
    45  C    0.120043
    46  C    0.061767
    47  C    0.045831
    48  C    0.148642
    49  C   -0.014489
    50  C    0.059884
    51  C   -0.014829
    52  C    0.146073
    53  C    0.168365
    54  C   -0.020105
    55  C    0.059009
    56  C   -0.030201
    57  C    0.159815
    58  C    0.161080
    59  C   -0.029911
    60  C    0.059022
    61  C   -0.019490
    62  C    0.167872
    63  C    0.001108
    64  C   -0.005586
    65  C    0.121090
    66  C    0.047075
    67  C    0.036479
    68  C    0.035953
    69  C    0.065912
    70  C    0.121551
    71  C    0.006908
    72  C    0.044029
    73  C    0.132472
    74  C   -0.009819
    75  C    0.065852
    76  C    0.055962
    77  C    0.073715
    78  H   -0.034856
    79  H   -0.052185
    80  H   -0.031838
    81  H   -0.042739
    82  H   -0.042730
    83  H   -0.030586
    84  H   -0.043356
    85  H   -0.030879
    86  H   -0.043234
    87  H   -0.026006
    88  H   -0.050846
    89  H   -0.036786
    90  O   -0.285560
    91  C    0.123726
    92  O   -0.276353
    93  C    0.128029
    94  O   -0.278245
    95  O   -0.284561
    96  C    0.124502
    97  C    0.126475
    98  H   -0.025291
    99  H   -0.016641
   100  H   -0.025019
   101  H   -0.024291
   102  H   -0.027071
   103  H   -0.021075
   104  H   -0.025460
   105  H   -0.023290
   106  H   -0.021331
   107  H   -0.022133
   108  H   -0.025086
   109  H   -0.024112
   110  H   -0.031256
   111  H   -0.017367
   112  H   -0.020954
   113  H   -0.018478
   114  H    0.028653
   115  H    0.022557
   116  H    0.041762
   117  H    0.033709
   118  H    0.030525
   119  H    0.040523
   120  H    0.040712
   121  H    0.027349
   122  H    0.030030
   123  H    0.036550
   124  H    0.030944
   125  H    0.040169
   126  H   -0.028588
   127  O   -0.282802
   128  H   -0.021536
   129  H   -0.017977
   130  O   -0.276620
   131  O   -0.281843
   132  H   -0.026382
   133  H   -0.019074
   134  H   -0.028491
   135  O   -0.293098
   136  H   -0.028573
   137  O   -0.281831
   138  H   -0.022335
   139  H   -0.018202
   140  O   -0.276486
   141  O   -0.279992
   142  H   -0.027631
   143  H   -0.020137
   144  H   -0.025499
   145  O   -0.277552
   146  C    0.118872
   147  C    0.108023
   148  C    0.117322
   149  C    0.106471
   150  H    0.039584
   151  H    0.034874
   152  H    0.038508
   153  H    0.036370
   154  H    0.032073
   155  H    0.057782
   156  H    0.035291
   157  H    0.039313
   158  H    0.039002
   159  H    0.057812
   160  H    0.032580
   161  H    0.033319
   162  C    0.126905
   163  H    0.042014
   164  H    0.033227
   165  H    0.035363
   166  C    0.123263
   167  H    0.033816
   168  H    0.033460
   169  H    0.038759
   170  C    0.123014
   171  H    0.034201
   172  H    0.039387
   173  H    0.032890
   174  C    0.127029
   175  H    0.018578
   176  H    0.040050
   177  H    0.027897
 Sum of Mulliken atomic charges =   1.00000

 Dipole moment (field-independent basis, Debye):
    X=              1.5300    Y=             -4.0256    Z=              1.7282  Tot=              4.6404
 Quadrupole moment (field-independent basis, Debye-Ang):
   XX=           -413.3573   YY=           -419.7334   ZZ=           -491.5106
   XY=            -14.2765   XZ=              5.9175   YZ=             -1.8749

 Normal termination of Gaussian 09 at Tue Jan 27 20:56:16 2015.
