 Gaussian 09, Revision A.02,
 Gaussian 09:  EM64L-G09RevA.02 11-Jun-2009

 -------------------
 #p sp B3LYP/cc-pVDZ
 -------------------

 ------------------------------------------
 Auto Spiro; and yes I said yes I will Yes.
 ------------------------------------------
 Symbolic Z-matrix:
 Charge =  1 Multiplicity = 2

                         Standard orientation:
 ---------------------------------------------------------------------
 Center     Atomic      Atomic             Coordinates (Angstroms)
 Number     Number       Type             X           Y           Z
 ---------------------------------------------------------------------
      1          6           0       -0.062812   -0.045654    0.293071
      2          6           0       -0.871139   -0.911931   -0.680626
      3          6           0       -0.557952   -0.584575   -2.012705
      4          6           0        0.465023    0.465280   -2.011271
      5          6           0        0.746724    0.819596   -0.677833
      6          6           0       -0.949237    0.726992    1.277296
      7          6           0       -0.650342    0.358602    2.605755
      8          6           0        0.453962   -0.602872    2.590736
      9          6           0        0.813509   -0.862366    1.253160
     10          6           0       -1.957273    1.631840    0.992963
     11          6           0       -2.696110    2.193375    2.051195
     12          6           0       -2.407169    1.819806    3.373820
     13          6           0       -1.392483    0.904361    3.654489
     14          6           0        1.150577    1.088079   -3.058743
     15          6           0        2.107010    2.056551   -2.764696
     16          6           0        2.387585    2.412185   -1.434762
     17          6           0        1.693543    1.791961   -0.383528
     18          6           0       -1.819085   -1.878995   -0.380956
     19          6           0       -2.478064   -2.539606   -1.431000
     20          6           0       -2.169161   -2.209945   -2.763643
     21          6           0       -1.216557   -1.237925   -3.058086
     22          6           0        1.152130   -1.233848    3.621674
     23          6           0        2.184094   -2.117019    3.311355
     24          6           0        2.543490   -2.376439    1.975058
     25          6           0        1.843827   -1.731400    0.936327
     26          7           0       -3.725996    3.133028    1.770568
     27          7           0        3.400318    3.380876   -1.153960
     28          7           0       -3.465152   -3.531863   -1.158792
     29          7           0        3.606480   -3.266812    1.690515
     30          6           0        4.732602   -3.300942    2.561979
     31          6           0       -3.273630   -4.421303   -0.066004
     32          6           0        3.553890   -4.169387    0.594835
     33          6           0       -4.751798   -3.434922   -1.759574
     34          6           0       -3.446883    4.239082    0.923033
     35          6           0       -4.927578    3.115322    2.526683
     36          6           0        4.747216    3.129569   -1.500709
     37          6           0        3.051912    4.555738   -0.429788
     38          6           0        5.652512    4.182146   -1.699954
     39          6           0        6.988984    3.939534   -2.025002
     40          6           0        7.448965    2.628449   -2.178829
     41          6           0        6.550783    1.569860   -1.993149
     42          6           0        5.226284    1.812087   -1.651153
     43          6           0       -4.412869    4.724633    0.033738
     44          6           0       -4.142794    5.808250   -0.805744
     45          6           0       -2.881810    6.412701   -0.778767
     46          6           0       -1.911784    5.937706    0.113036
     47          6           0       -2.192052    4.872448    0.955756
     48          6           0       -5.362180    4.248410    3.221989
     49          6           0       -6.552821    4.241293    3.950547
     50          6           0       -7.315419    3.077869    4.007656
     51          6           0       -6.901712    1.930551    3.323631
     52          6           0       -5.724342    1.942228    2.569882
     53          6           0        3.574065    4.796075    0.844251
     54          6           0        3.260227    5.957814    1.551113
     55          6           0        2.401816    6.893750    0.978442
     56          6           0        1.867430    6.679625   -0.295335
     57          6           0        2.190103    5.519030   -1.009974
     58          6           0       -2.113200   -5.224172    0.014530
     59          6           0       -1.914148   -6.062347    1.112330
     60          6           0       -2.868220   -6.147767    2.126029
     61          6           0       -4.034373   -5.385575    2.038727
     62          6           0       -4.226525   -4.525764    0.959259
     63          6           0       -5.329554   -2.196014   -2.061777
     64          6           0       -6.585074   -2.113015   -2.670928
     65          6           0       -7.298670   -3.278238   -2.966866
     66          6           0       -6.733176   -4.523425   -2.654143
     67          6           0       -5.477417   -4.600522   -2.070128
     68          6           0        2.342360   -4.764041    0.196133
     69          6           0        2.305629   -5.657884   -0.864024
     70          6           0        3.478458   -6.004888   -1.547892
     71          6           0        4.690339   -5.428065   -1.156656
     72          6           0        4.718678   -4.510721   -0.103342
     73          6           0        5.554835   -2.155778    2.705493
     74          6           0        6.651117   -2.196007    3.574234
     75          6           0        6.952671   -3.368507    4.273072
     76          6           0        6.165004   -4.506660    4.116713
     77          6           0        5.056685   -4.461372    3.269015
     78          1           0        2.124793   -1.912242   -0.096137
     79          1           0       -2.062322   -2.120670    0.649138
     80          1           0       -2.687569   -2.723849   -3.567331
     81          1           0       -0.989215   -1.001515   -4.094555
     82          1           0        0.943378    0.825919   -4.093304
     83          1           0        2.648262    2.557722   -3.560629
     84          1           0        0.893577   -1.053189    4.662258
     85          1           0        2.721357   -2.620894    4.108316
     86          1           0       -1.181461    0.633069    4.685994
     87          1           0       -2.981588    2.259375    4.183558
     88          1           0        1.923053    2.058895    0.644061
     89          1           0       -2.195350    1.904905   -0.030483
     90          8           0        3.331374   -6.905730   -2.571499
     91          6           0        4.489093   -7.281364   -3.294239
     92          8           0       -8.534679   -3.314281   -3.552823
     93          6           0       -9.147613   -2.081707   -3.888772
     94          8           0        8.735962    2.277473   -2.501205
     95          8           0       -2.493815    7.459454   -1.579200
     96          6           0       -3.444410    7.987115   -2.488250
     97          6           0        9.671334    3.318351   -2.711214
     98          1           0        6.913309    0.553056   -2.111295
     99          1           0        4.553095    0.974548   -1.502828
    100          1           0       -5.387424    4.247756   -0.004954
    101          1           0       -4.915308    6.152454   -1.484301
    102          1           0        7.652693    4.785312   -2.167050
    103          1           0        5.311459    5.207026   -1.598887
    104          1           0       -0.941312    6.421577    0.144835
    105          1           0       -1.431298    4.518807    1.643702
    106          1           0        5.663484   -4.059214    0.181671
    107          1           0        5.616547   -5.667728   -1.667050
    108          1           0        1.364001   -6.104321   -1.163667
    109          1           0        1.420049   -4.518636    0.711299
    110          1           0       -6.994066   -1.134045   -2.894406
    111          1           0       -4.790991   -1.283109   -1.829411
    112          1           0       -7.292911   -5.422555   -2.892880
    113          1           0       -5.049206   -5.571906   -1.842924
    114          1           0       -8.546652   -1.513970   -4.612190
    115          1           0       -9.319792   -1.459041   -3.000218
    116          1           0      -10.108224   -2.336578   -4.340615
    117          1           0       -4.328708    8.377642   -1.966757
    118          1           0       -3.765456    7.235335   -3.222197
    119          1           0       -2.943262    8.806159   -3.008213
    120          1           0       10.617785    2.830271   -2.953384
    121          1           0        9.803596    3.935071   -1.811062
    122          1           0        9.376501    3.968390   -3.546862
    123          1           0        5.234533   -7.763548   -2.646542
    124          1           0        4.954944   -6.420078   -3.792863
    125          1           0        4.155305   -7.995752   -4.049840
    126          1           0       -4.787432   -5.443057    2.819837
    127          1           0       -5.124748   -3.918851    0.896402
    128          1           0       -2.704218   -6.810070    2.971249
    129          1           0       -1.002029   -6.651030    1.143522
    130          8           0       -1.128044   -5.166092   -0.946187
    131          8           0        5.208793   -1.076679    1.953150
    132          1           0        7.283168   -1.323734    3.696491
    133          1           0        7.812719   -3.383532    4.937211
    134          1           0        6.398872   -5.419052    4.657508
    135          1           0        4.423106   -5.333928    3.138683
    136          1           0        3.675637    6.122023    2.541046
    137          1           0        4.242990    4.053863    1.270443
    138          1           0        2.144037    7.802735    1.515266
    139          1           0        1.218089    7.428391   -0.735010
    140          8           0        1.744848    5.243656   -2.265205
    141          8           0       -5.269765    0.886080    1.839684
    142          1           0       -7.512302    1.035670    3.365441
    143          1           0       -8.238906    3.051979    4.579651
    144          1           0       -6.868129    5.135311    4.480757
    145          1           0       -4.749618    5.143993    3.179081
    146          6           0        0.906295    6.190265   -2.913999
    147          6           0       -6.003061   -0.326988    1.870621
    148          6           0       -1.459261   -5.778287   -2.195407
    149          6           0        6.013606    0.090378    2.026204
    150          1           0        0.690925    5.764918   -3.895918
    151          1           0        1.416317    7.154725   -3.041293
    152          1           0       -0.034302    6.346659   -2.372905
    153          1           0        7.054150   -0.120141    1.746341
    154          1           0        5.991415    0.531691    3.031473
    155          1           0        5.586771    0.791810    1.307684
    156          1           0       -0.578203   -5.666509   -2.830452
    157          1           0       -2.315801   -5.287275   -2.669343
    158          1           0       -1.679740   -6.845421   -2.058389
    159          1           0       -5.460479   -1.018116    1.223232
    160          1           0       -7.022371   -0.193591    1.483805
    161          1           0       -6.054144   -0.741607    2.886001
 ---------------------------------------------------------------------

 SCF Done:  E(UB3LYP) =  -3948.30907887     A.U. after   25 cycles

 Alpha virt. eigenvalues --    0.20211   0.20672   0.21298   0.21499   0.21662
 Alpha virt. eigenvalues --    0.21954   0.22252   0.22587   0.22841   0.23253
 Alpha virt. eigenvalues --    0.23530   0.23870   0.23941   0.24293   0.24447

  Beta  occ. eigenvalues --  -19.24514 -19.24266 -19.24243 -19.23864 -19.23778
  Beta  occ. eigenvalues --  -19.22835 -19.22829 -19.22244 -14.45075 -14.44215
  Beta  occ. eigenvalues --  -14.42934 -14.42553 -10.32449 -10.32030 -10.31772
  Beta  occ. eigenvalues --  -10.31665 -10.31631 -10.31275 -10.30882 -10.30760
  Beta  occ. eigenvalues --  -10.30757 -10.30635 -10.30600 -10.30570 -10.30472
  Beta  occ. eigenvalues --  -10.30171 -10.30125 -10.30108 -10.30001 -10.29952
  Beta  occ. eigenvalues --  -10.29819 -10.29734 -10.29669 -10.29592 -10.29468
  Beta  occ. eigenvalues --  -10.29450 -10.29377 -10.29213 -10.29136 -10.29060
  Beta  occ. eigenvalues --  -10.28956 -10.27502 -10.27395 -10.27279 -10.27213
  Beta  occ. eigenvalues --  -10.27046 -10.26975 -10.26803 -10.26791 -10.26785
  Beta  occ. eigenvalues --  -10.26641 -10.26602 -10.26553 -10.26474 -10.26446
  Beta  occ. eigenvalues --  -10.26417 -10.26396 -10.26337 -10.26277 -10.26233
  Beta  occ. eigenvalues --  -10.26182 -10.26157 -10.26143 -10.26104 -10.26082
  Beta  occ. eigenvalues --  -10.26045 -10.26041 -10.25978 -10.25877 -10.25868
  Beta  occ. eigenvalues --  -10.25866 -10.25783 -10.25782 -10.25760 -10.25691
  Beta  occ. eigenvalues --  -10.25670 -10.25571 -10.25551 -10.25478 -10.25477
  Beta  occ. eigenvalues --  -10.25456 -10.25333 -10.25323 -10.25253 -10.25248
  Beta  occ. eigenvalues --  -10.25211 -10.25196 -10.25187 -10.25157 -10.25101
  Beta  occ. eigenvalues --  -10.24999 -10.24923 -10.24828  -1.14327  -1.14062
  Beta  occ. eigenvalues --   -1.13552  -1.13530  -1.13242  -1.12400  -1.12279
  Beta  occ. eigenvalues --   -1.11868  -1.04592  -1.04135  -1.03184  -1.02916
  Beta  occ. eigenvalues --   -0.97971  -0.94969  -0.93017  -0.92912  -0.92751
  Beta  occ. eigenvalues --   -0.92243  -0.92025  -0.91971  -0.91723  -0.90911
  Beta  occ. eigenvalues --   -0.90757  -0.89982  -0.88212  -0.86060  -0.84732
  Beta  occ. eigenvalues --   -0.83808  -0.83640  -0.83003  -0.82858  -0.82775
  Beta  occ. eigenvalues --   -0.82513  -0.82445  -0.82321  -0.82154  -0.82022
  Beta  occ. eigenvalues --   -0.82000  -0.81804  -0.81640  -0.81598  -0.81560
  Beta  occ. eigenvalues --   -0.81223  -0.80812  -0.80267  -0.79422  -0.78653
  Beta  occ. eigenvalues --   -0.77576  -0.76879  -0.76735  -0.76301  -0.76219
  Beta  occ. eigenvalues --   -0.76035  -0.75531  -0.74973  -0.74958  -0.74051
  Beta  occ. eigenvalues --   -0.71836  -0.71120  -0.70408  -0.70159  -0.69120
  Beta  occ. eigenvalues --   -0.68864  -0.68492  -0.68188  -0.67951  -0.67824
  Beta  occ. eigenvalues --   -0.67522  -0.67241  -0.66811  -0.66728  -0.66546
  Beta  occ. eigenvalues --   -0.66220  -0.66057  -0.65949  -0.65791  -0.65183
  Beta  occ. eigenvalues --   -0.64290  -0.64088  -0.63532  -0.62988  -0.61395
  Beta  occ. eigenvalues --   -0.61138  -0.61124  -0.60680  -0.60579  -0.60093
  Beta  occ. eigenvalues --   -0.60079  -0.59765  -0.59277  -0.58998  -0.58537
  Beta  occ. eigenvalues --   -0.58184  -0.58131  -0.57956  -0.57453  -0.57235
  Beta  occ. eigenvalues --   -0.56971  -0.56594  -0.56245  -0.56061  -0.55837
  Beta  occ. eigenvalues --   -0.55128  -0.54993  -0.54785  -0.54484  -0.54132
  Beta  occ. eigenvalues --   -0.53896  -0.53813  -0.53666  -0.53552  -0.53449
  Beta  occ. eigenvalues --   -0.53046  -0.53031  -0.52857  -0.52497  -0.52470
  Beta  occ. eigenvalues --   -0.52383  -0.52265  -0.52236  -0.52145  -0.52066
  Beta  occ. eigenvalues --   -0.51960  -0.51797  -0.51637  -0.51455  -0.51317
  Beta  occ. eigenvalues --   -0.51143  -0.51083  -0.51030  -0.50887  -0.50782
  Beta  occ. eigenvalues --   -0.50669  -0.50332  -0.50182  -0.49734  -0.49613
  Beta  occ. eigenvalues --   -0.49560  -0.49421  -0.49116  -0.48931  -0.48890
  Beta  occ. eigenvalues --   -0.48752  -0.48665  -0.48555  -0.48404  -0.48305
  Beta  occ. eigenvalues --   -0.48192  -0.47785  -0.47550  -0.47401  -0.47059
  Beta  occ. eigenvalues --   -0.46895  -0.46696  -0.46176  -0.45941  -0.45422
  Beta  occ. eigenvalues --   -0.45279  -0.45191  -0.45097  -0.44966  -0.44918
  Beta  occ. eigenvalues --   -0.44825  -0.44663  -0.44637  -0.44501  -0.44340
  Beta  occ. eigenvalues --   -0.44281  -0.44148  -0.44103  -0.44009  -0.43614
  Beta  occ. eigenvalues --   -0.43443  -0.43259  -0.43090  -0.42945  -0.42776
  Beta  occ. eigenvalues --   -0.42759  -0.42573  -0.42430  -0.42348  -0.42059
  Beta  occ. eigenvalues --   -0.41774  -0.41563  -0.41083  -0.40760  -0.40445
  Beta  occ. eigenvalues --   -0.40318  -0.40222  -0.40059  -0.39989  -0.39710
  Beta  occ. eigenvalues --   -0.39531  -0.39480  -0.39448  -0.39315  -0.39250
  Beta  occ. eigenvalues --   -0.39130  -0.38733  -0.38664  -0.38594  -0.37666
  Beta  occ. eigenvalues --   -0.36704  -0.35944  -0.35288  -0.34421  -0.34127
  Beta  occ. eigenvalues --   -0.34082  -0.33537  -0.32983  -0.32855  -0.32396
  Beta  occ. eigenvalues --   -0.32346  -0.32287  -0.32122  -0.31836  -0.31707
  Beta  occ. eigenvalues --   -0.31656  -0.31329  -0.30984  -0.30226  -0.29739
  Beta  occ. eigenvalues --   -0.29575  -0.29457  -0.28999  -0.28792  -0.25276
  Beta  occ. eigenvalues --   -0.24778  -0.23794
  Beta virt. eigenvalues --   -0.22334  -0.11417  -0.10953  -0.09926  -0.09567
  Beta virt. eigenvalues --   -0.08979  -0.08524  -0.08273  -0.08097  -0.07793
  Beta virt. eigenvalues --   -0.07766  -0.07540  -0.07261  -0.07001  -0.06749

 Mulliken atomic charges:
              1
     1  C   -0.304722
     2  C    0.102974
     3  C    0.043466
     4  C    0.048986
     5  C    0.094599
     6  C    0.101887
     7  C    0.050038
     8  C    0.049787
     9  C    0.101422
    10  C    0.044846
    11  C    0.102069
    12  C    0.070762
    13  C   -0.006545
    14  C   -0.009293
    15  C    0.111875
    16  C    0.056809
    17  C    0.046049
    18  C    0.032079
    19  C    0.090087
    20  C    0.076648
    21  C   -0.005591
    22  C   -0.006643
    23  C    0.071112
    24  C    0.121470
    25  C    0.032724
    26  N   -0.256820
    27  N   -0.277844
    28  N   -0.276740
    29  N   -0.252454
    30  C   -0.028262
    31  C    0.040233
    32  C    0.070729
    33  C    0.046176
    34  C    0.046633
    35  C    0.010199
    36  C    0.092575
    37  C   -0.000538
    38  C    0.036223
    39  C   -0.001612
    40  C    0.123827
    41  C    0.045097
    42  C    0.023454
    43  C    0.055843
    44  C    0.007428
    45  C    0.126436
    46  C    0.061489
    47  C    0.041092
    48  C    0.054420
    49  C    0.053821
    50  C    0.052161
    51  C   -0.006561
    52  C    0.136699
    53  C    0.077896
    54  C    0.050554
    55  C    0.049445
    56  C   -0.025294
    57  C    0.137749
    58  C    0.065762
    59  C    0.059576
    60  C    0.052589
    61  C    0.056792
    62  C    0.037960
    63  C    0.021435
    64  C   -0.003591
    65  C    0.125151
    66  C    0.054091
    67  C    0.051717
    68  C    0.033367
    69  C    0.057780
    70  C    0.130427
    71  C    0.001893
    72  C    0.045566
    73  C    0.147399
    74  C   -0.008578
    75  C    0.054740
    76  C    0.053919
    77  C    0.075770
    78  H   -0.026097
    79  H   -0.041468
    80  H   -0.025046
    81  H   -0.042603
    82  H   -0.041701
    83  H   -0.032931
    84  H   -0.037984
    85  H   -0.017619
    86  H   -0.038067
    87  H   -0.021324
    88  H   -0.053680
    89  H   -0.036281
    90  O   -0.272501
    91  C    0.122733
    92  O   -0.275066
    93  C    0.127108
    94  O   -0.278102
    95  O   -0.286657
    96  C    0.122321
    97  C    0.125165
    98  H   -0.025033
    99  H   -0.018725
   100  H   -0.023048
   101  H   -0.020631
   102  H   -0.023795
   103  H   -0.018945
   104  H   -0.022279
   105  H   -0.022898
   106  H   -0.017622
   107  H   -0.019883
   108  H   -0.017310
   109  H   -0.011515
   110  H   -0.028933
   111  H   -0.022866
   112  H   -0.017542
   113  H   -0.026225
   114  H    0.029249
   115  H    0.026083
   116  H    0.043936
   117  H    0.037142
   118  H    0.031651
   119  H    0.042712
   120  H    0.041610
   121  H    0.028939
   122  H    0.031707
   123  H    0.034783
   124  H    0.032354
   125  H    0.044675
   126  H   -0.025440
   127  H   -0.025748
   128  H   -0.022877
   129  H   -0.027785
   130  O   -0.309065
   131  O   -0.277830
   132  H   -0.019081
   133  H   -0.016208
   134  H   -0.018266
   135  H   -0.030327
   136  H   -0.025959
   137  H   -0.041232
   138  H   -0.021788
   139  H   -0.012168
   140  O   -0.276364
   141  O   -0.279455
   142  H   -0.021700
   143  H   -0.018930
   144  H   -0.020782
   145  H   -0.026720
   146  C    0.115418
   147  C    0.115655
   148  C    0.123368
   149  C    0.114954
   150  H    0.038139
   151  H    0.032928
   152  H    0.040227
   153  H    0.036730
   154  H    0.033278
   155  H    0.048943
   156  H    0.041527
   157  H    0.037514
   158  H    0.022462
   159  H    0.046509
   160  H    0.033638
   161  H    0.033930
 Sum of Mulliken atomic charges =   1.00000

 Dipole moment (field-independent basis, Debye):
    X=              0.7183    Y=              2.4687    Z=             -0.2349  Tot=              2.5818
 Quadrupole moment (field-independent basis, Debye-Ang):
   XX=           -347.5818   YY=           -396.4059   ZZ=           -463.2442
   XY=            -24.6047   XZ=              5.0030   YZ=            -12.4737

 Normal termination of Gaussian 09 at Tue Jan 27 22:04:21 2015.
