 Gaussian 09, Revision A.02,
 Gaussian 09:  EM64L-G09RevA.02 11-Jun-2009

 -------------------
 #p sp B3LYP/cc-pVDZ
 -------------------

 ------------------------------------------
 Auto Spiro; and yes I said yes I will Yes.
 ------------------------------------------
 Symbolic Z-matrix:
 Charge =  1 Multiplicity = 2

                         Standard orientation:
 ---------------------------------------------------------------------
 Center     Atomic      Atomic             Coordinates (Angstroms)
 Number     Number       Type             X           Y           Z
 ---------------------------------------------------------------------
      1          6           0       -0.017675    0.118327    0.407437
      2          6           0       -0.648023    1.109399    1.393546
      3          6           0       -0.540105    0.628247    2.713948
      4          6           0        0.262268   -0.598449    2.698935
      5          6           0        0.598611   -0.905043    1.365060
      6          6           0       -1.106362   -0.485747   -0.496783
      7          6           0       -0.838143   -0.201491   -1.847968
      8          6           0        0.431314    0.522709   -1.932050
      9          6           0        0.935922    0.717889   -0.629665
     10          6           0       -2.245677   -1.176944   -0.116466
     11          6           0       -3.150125   -1.605554   -1.105014
     12          6           0       -2.885607   -1.317900   -2.457400
     13          6           0       -1.741004   -0.617299   -2.830907
     14          6           0        0.711317   -1.426516    3.729518
     15          6           0        1.483510   -2.544765    3.423512
     16          6           0        1.830228   -2.845637    2.092098
     17          6           0        1.375999   -2.008534    1.053903
     18          6           0       -1.344169    2.274367    1.113060
     19          6           0       -1.991032    2.952734    2.159192
     20          6           0       -1.911228    2.458957    3.469840
     21          6           0       -1.176866    1.306723    3.756445
     22          6           0        1.159529    0.981757   -3.032172
     23          6           0        2.381478    1.615439   -2.827033
     24          6           0        2.902058    1.788571   -1.529885
     25          6           0        2.157100    1.342315   -0.420075
     26          7           0       -4.313001   -2.337159   -0.740616
     27          7           0        2.643092   -3.971935    1.804756
     28          7           0       -2.759163    4.130941    1.881936
     29          7           0        4.173013    2.393583   -1.350416
     30          6           0        5.257477    2.047424   -2.199941
     31          6           0       -2.061197    5.270736    1.403448
     32          6           0        4.357610    3.372289   -0.330826
     33          6           0       -4.169089    4.004363    1.743708
     34          6           0       -4.207392   -3.375937    0.229742
     35          6           0       -5.579511   -1.990151   -1.273165
     36          6           0        3.725486   -4.300893    2.671030
     37          6           0        2.386995   -4.780235    0.665552
     38          6           0        3.912396   -5.611954    3.121555
     39          6           0        4.983421   -5.943911    3.954712
     40          6           0        5.876826   -4.950591    4.371036
     41          6           0        5.689678   -3.631015    3.932721
     42          6           0        4.636295   -3.313578    3.087097
     43          6           0       -5.117418   -3.470298    1.288477
     44          6           0       -5.024301   -4.496615    2.231936
     45          6           0       -3.991701   -5.436074    2.140528
     46          6           0       -3.066300   -5.338694    1.090889
     47          6           0       -3.178245   -4.330550    0.143339
     48          6           0       -6.504558   -3.001412   -1.592024
     49          6           0       -7.762759   -2.667382   -2.087874
     50          6           0       -8.119042   -1.318737   -2.321982
     51          6           0       -7.179857   -0.321417   -2.015664
     52          6           0       -5.927270   -0.654407   -1.485662
     53          6           0        3.461849   -5.268410   -0.099006
     54          6           0        3.211807   -6.061663   -1.215725
     55          6           0        1.890281   -6.392348   -1.601088
     56          6           0        0.828207   -5.894155   -0.828831
     57          6           0        1.081315   -5.102320    0.300264
     58          6           0       -0.875951    5.646971    2.051623
     59          6           0       -0.143645    6.740989    1.584942
     60          6           0       -0.584068    7.474705    0.470949
     61          6           0       -1.790637    7.108970   -0.150310
     62          6           0       -2.522177    6.004145    0.300442
     63          6           0       -4.756961    2.807577    1.317300
     64          6           0       -6.143445    2.681011    1.196906
     65          6           0       -6.972753    3.767551    1.486671
     66          6           0       -6.393670    4.969907    1.921895
     67          6           0       -5.017569    5.083098    2.059394
     68          6           0        3.462045    4.446929   -0.195270
     69          6           0        3.653815    5.415441    0.781550
     70          6           0        4.757820    5.336824    1.643884
     71          6           0        5.658396    4.273198    1.518303
     72          6           0        5.447652    3.296774    0.542561
     73          6           0        5.429384    0.715952   -2.606537
     74          6           0        6.491471    0.379134   -3.451453
     75          6           0        7.402526    1.358161   -3.883071
     76          6           0        7.235462    2.683506   -3.446127
     77          6           0        6.159648    3.033764   -2.623466
     78          1           0        2.555507    1.471656    0.581647
     79          1           0       -1.423894    2.654440    0.098527
     80          1           0       -2.429818    2.994227    4.259804
     81          1           0       -1.112829    0.943252    4.778954
     82          1           0        0.458508   -1.214923    4.765444
     83          1           0        1.828522   -3.198258    4.218040
     84          1           0        0.781390    0.853808   -4.043305
     85          1           0        2.954877    1.977096   -3.674279
     86          1           0       -1.553072   -0.413528   -3.882064
     87          1           0       -3.586321   -1.657779   -3.213442
     88          1           0        1.640450   -2.230281    0.025053
     89          1           0       -2.450087   -1.388352    0.928528
     90          8           0        4.868490    6.341841    2.569599
     91          6           0        5.984474    6.324035    3.442833
     92          8           0       -8.336279    3.760734    1.381088
     93          6           0       -8.959762    2.558747    0.950363
     94          8           0        6.950650   -5.158762    5.191189
     95          8           0       -3.801469   -6.474964    3.010844
     96          6           0       -4.695495   -6.601093    4.102571
     97          6           0        7.176838   -6.471801    5.674987
     98          1           0        6.394022   -2.871468    4.257642
     99          1           0        4.507288   -2.291860    2.743585
    100          1           0       -5.911838   -2.735672    1.376824
    101          1           0       -5.750173   -4.537251    3.036330
    102          1           0        5.097313   -6.971313    4.281586
    103          1           0        3.213784   -6.383834    2.813735
    104          1           0       -2.265920   -6.068004    1.020981
    105          1           0       -2.455462   -4.282552   -0.664713
    106          1           0        6.146044    2.470471    0.451503
    107          1           0        6.516457    4.183444    2.174965
    108          1           0        2.965049    6.248908    0.880066
    109          1           0        2.612326    4.522875   -0.866776
    110          1           0       -6.553718    1.739917    0.849852
    111          1           0       -4.130055    1.956903    1.072122
    112          1           0       -7.046977    5.803788    2.161022
    113          1           0       -4.585832    6.015654    2.409104
    114          1           0       -8.786147    1.740245    1.662634
    115          1           0       -8.607610    2.247669   -0.041024
    116          1           0      -10.029163    2.775949    0.908559
    117          1           0       -5.729030   -6.759651    3.765037
    118          1           0       -4.664783   -5.719015    4.756511
    119          1           0       -4.363206   -7.476449    4.664241
    120          1           0        8.067895   -6.411297    6.302717
    121          1           0        7.359197   -7.179948    4.855196
    122          1           0        6.332656   -6.831924    6.278328
    123          1           0        6.931945    6.374821    2.889522
    124          1           0        5.989328    5.428055    4.078583
    125          1           0        5.888348    7.210863    4.072344
    126          8           0       -2.158669    7.890764   -1.207626
    127          1           0       -3.434041    5.699367   -0.195198
    128          8           0        1.016925    7.183284    2.156421
    129          1           0       -0.546450    5.082534    2.913345
    130          1           0        4.737781   -0.037280   -2.253507
    131          8           0        6.741636   -0.886917   -3.897876
    132          8           0        8.172307    3.567090   -3.898557
    133          1           0        6.008119    4.057752   -2.309528
    134          8           0        4.192675   -6.541371   -2.040005
    135          1           0        4.472176   -5.001623    0.180771
    136          8           0       -0.500126   -6.080034   -1.101422
    137          1           0        0.235630   -4.750237    0.879073
    138          1           0       -5.241233    0.150228   -1.248571
    139          8           0       -7.444241    1.022384   -2.105327
    140          8           0       -8.734831   -3.587038   -2.372512
    141          1           0       -6.226896   -4.034923   -1.433861
    142          8           0        0.175693    8.504853   -0.030988
    143          6           0       -0.107205    9.778960    0.544190
    144          8           0       -9.389781   -0.970459   -2.723370
    145          6           0       -9.776967   -1.386131   -4.036746
    146          8           0        1.648197   -7.082258   -2.769535
    147          6           0        2.076406   -8.446380   -2.802479
    148          8           0        8.407985    1.034281   -4.761755
    149          6           0        9.633221    0.653342   -4.139421
    150          1           0        0.563179   10.492092    0.057029
    151          1           0        0.087774    9.778384    1.624058
    152          1           0       -1.147495   10.075261    0.358166
    153          1           0       10.330447    0.422359   -4.949150
    154          1           0        9.499184   -0.237262   -3.512044
    155          1           0       10.041466    1.471963   -3.533077
    156          1           0        3.161834   -8.525772   -2.702432
    157          1           0        1.591307   -9.031996   -2.009339
    158          1           0        1.768259   -8.834342   -3.776585
    159          1           0       -9.096981   -0.976121   -4.795785
    160          1           0      -10.780085   -0.982473   -4.195593
    161          1           0       -9.801772   -2.475571   -4.118897
    162          6           0        8.040945    4.929167   -3.525919
    163          6           0        5.540073   -6.209097   -1.745486
    164          6           0       -8.472633   -4.951442   -2.083343
    165          6           0       -3.355156    7.564659   -1.894517
    166          1           0        6.140608   -6.685544   -2.522684
    167          1           0        5.702147   -5.123661   -1.775506
    168          1           0        5.846760   -6.590274   -0.762764
    169          1           0        8.883127    5.446561   -3.989602
    170          1           0        8.089101    5.059057   -2.436552
    171          1           0        7.102111    5.360929   -3.896736
    172          1           0       -3.458780    8.313156   -2.682721
    173          1           0       -4.230176    7.610046   -1.232498
    174          1           0       -3.301768    6.566261   -2.348466
    175          1           0       -8.243118   -5.099062   -1.020441
    176          1           0       -7.643229   -5.341827   -2.687689
    177          1           0       -9.387941   -5.490004   -2.336160
    178          6           0        5.811179   -1.905459   -3.571162
    179          6           0       -0.966989   -7.263326   -1.749002
    180          6           0       -8.065903    1.533997   -3.284573
    181          6           0        1.464675    6.538720    3.341749
    182          1           0       -2.044893   -7.279532   -1.570028
    183          1           0       -0.517172   -8.161017   -1.307074
    184          1           0       -0.764587   -7.244619   -2.821370
    185          1           0       -7.850470    2.605587   -3.290997
    186          1           0       -9.146090    1.372371   -3.273313
    187          1           0       -7.635384    1.076723   -4.184616
    188          1           0        2.407328    7.021024    3.601629
    189          1           0        1.649744    5.470906    3.173980
    190          1           0        0.738877    6.659283    4.156963
    191          1           0        6.168933   -2.807148   -4.072461
    192          1           0        4.803489   -1.664967   -3.933406
    193          1           0        5.767130   -2.085475   -2.488024
 ---------------------------------------------------------------------

 SCF Done:  E(UB3LYP) =  -4864.49861065     A.U. after   24 cycles

 Alpha virt. eigenvalues --    0.61534   0.61673   0.61811   0.61911   0.61942
 Alpha virt. eigenvalues --    0.62042   0.62288   0.62477   0.62529   0.62644
 Alpha virt. eigenvalues --    0.62694   0.62868   0.62942   0.63021   0.63107

  Beta  occ. eigenvalues --  -19.23909 -19.23797 -19.23636 -19.23467 -19.23226
  Beta  occ. eigenvalues --  -19.23153 -19.23017 -19.22973 -19.22803 -19.22778
  Beta  occ. eigenvalues --  -19.22638 -19.22480 -19.21896 -19.21603 -19.20245
  Beta  occ. eigenvalues --  -19.20134 -14.44293 -14.43962 -14.43093 -14.42986
  Beta  occ. eigenvalues --  -10.31639 -10.31598 -10.31301 -10.31283 -10.31142
  Beta  occ. eigenvalues --  -10.31082 -10.31065 -10.30999 -10.30926 -10.30891
  Beta  occ. eigenvalues --  -10.30772 -10.30749 -10.30697 -10.30522 -10.30329
  Beta  occ. eigenvalues --  -10.30321 -10.30270 -10.30241 -10.30133 -10.30131
  Beta  occ. eigenvalues --  -10.30101 -10.30078 -10.30034 -10.29848 -10.29705
  Beta  occ. eigenvalues --  -10.29632 -10.29595 -10.29508 -10.29506 -10.29495
  Beta  occ. eigenvalues --  -10.29452 -10.29372 -10.29292 -10.29209 -10.29182
  Beta  occ. eigenvalues --  -10.29166 -10.29163 -10.28993 -10.28834 -10.28825
  Beta  occ. eigenvalues --  -10.28814 -10.28649 -10.28528 -10.27693 -10.27522
  Beta  occ. eigenvalues --  -10.27362 -10.27283 -10.27055 -10.27048 -10.26897
  Beta  occ. eigenvalues --  -10.26897 -10.26869 -10.26759 -10.26719 -10.26610
  Beta  occ. eigenvalues --  -10.26591 -10.26480 -10.26466 -10.26347 -10.26336
  Beta  occ. eigenvalues --  -10.26329 -10.26325 -10.26289 -10.26277 -10.26049
  Beta  occ. eigenvalues --  -10.26040 -10.25921 -10.25870 -10.25867 -10.25663
  Beta  occ. eigenvalues --  -10.25630 -10.25611 -10.25591 -10.25282 -10.25274
  Beta  occ. eigenvalues --  -10.25248 -10.25208 -10.25083 -10.25071 -10.24996
  Beta  occ. eigenvalues --  -10.24864 -10.24842 -10.24803 -10.24729 -10.24715
  Beta  occ. eigenvalues --  -10.24583 -10.24304 -10.24268 -10.24166  -1.13833
  Beta  occ. eigenvalues --   -1.13697  -1.13394  -1.13308  -1.13141  -1.12988
  Beta  occ. eigenvalues --   -1.12669  -1.12603  -1.12436  -1.12330  -1.12250
  Beta  occ. eigenvalues --   -1.12039  -1.10251  -1.10130  -1.09385  -1.09202
  Beta  occ. eigenvalues --   -1.04204  -1.04026  -1.03459  -1.03216  -0.97968
  Beta  occ. eigenvalues --   -0.94970  -0.92763  -0.92363  -0.92302  -0.92256
  Beta  occ. eigenvalues --   -0.91959  -0.91677  -0.91095  -0.90598  -0.90190
  Beta  occ. eigenvalues --   -0.89700  -0.88109  -0.85953  -0.84681  -0.83333
  Beta  occ. eigenvalues --   -0.83257  -0.82971  -0.82784  -0.82611  -0.82499
  Beta  occ. eigenvalues --   -0.82286  -0.82273  -0.82123  -0.82094  -0.82047
  Beta  occ. eigenvalues --   -0.81936  -0.81820  -0.81655  -0.81387  -0.81144
  Beta  occ. eigenvalues --   -0.81032  -0.80207  -0.79728  -0.78463  -0.77760
  Beta  occ. eigenvalues --   -0.77360  -0.77312  -0.77013  -0.76636  -0.76556
  Beta  occ. eigenvalues --   -0.76216  -0.75950  -0.75851  -0.75643  -0.75484
  Beta  occ. eigenvalues --   -0.75051  -0.74985  -0.74746  -0.73628  -0.73525
  Beta  occ. eigenvalues --   -0.72739  -0.72165  -0.71530  -0.70502  -0.69500
  Beta  occ. eigenvalues --   -0.68990  -0.68640  -0.68427  -0.67962  -0.67648
  Beta  occ. eigenvalues --   -0.67279  -0.67194  -0.66997  -0.66901  -0.66545
  Beta  occ. eigenvalues --   -0.66091  -0.65943  -0.65878  -0.65674  -0.65516
  Beta  occ. eigenvalues --   -0.65204  -0.64810  -0.63838  -0.63617  -0.63419
  Beta  occ. eigenvalues --   -0.62744  -0.61159  -0.60931  -0.60862  -0.60708
  Beta  occ. eigenvalues --   -0.60613  -0.60593  -0.60242  -0.59430  -0.59087
  Beta  occ. eigenvalues --   -0.59000  -0.58472  -0.58391  -0.58066  -0.57989
  Beta  occ. eigenvalues --   -0.57573  -0.57408  -0.57335  -0.57043  -0.56971
  Beta  occ. eigenvalues --   -0.56650  -0.56420  -0.56339  -0.55812  -0.55765
  Beta  occ. eigenvalues --   -0.55647  -0.55604  -0.55509  -0.55191  -0.55099
  Beta  occ. eigenvalues --   -0.54722  -0.54567  -0.54452  -0.54201  -0.54000
  Beta  occ. eigenvalues --   -0.53716  -0.53659  -0.53535  -0.53344  -0.53323
  Beta  occ. eigenvalues --   -0.53112  -0.52983  -0.52862  -0.52481  -0.52449
  Beta  occ. eigenvalues --   -0.52437  -0.52353  -0.52277  -0.51891  -0.51693
  Beta  occ. eigenvalues --   -0.51652  -0.51615  -0.51509  -0.51337  -0.51288
  Beta  occ. eigenvalues --   -0.51243  -0.51172  -0.51130  -0.50907  -0.50886
  Beta  occ. eigenvalues --   -0.50847  -0.50753  -0.50507  -0.50465  -0.50259
  Beta  occ. eigenvalues --   -0.50118  -0.49819  -0.49749  -0.49681  -0.49387
  Beta  occ. eigenvalues --   -0.49261  -0.49247  -0.49007  -0.48902  -0.48848
  Beta  occ. eigenvalues --   -0.48759  -0.48635  -0.48577  -0.48441  -0.48432
  Beta  occ. eigenvalues --   -0.48384  -0.48328  -0.48131  -0.48112  -0.47741
  Beta  occ. eigenvalues --   -0.47672  -0.47379  -0.47157  -0.47129  -0.46887
  Beta  occ. eigenvalues --   -0.46735  -0.46553  -0.46240  -0.45959  -0.45670
  Beta  occ. eigenvalues --   -0.45592  -0.45296  -0.44957  -0.44905  -0.44814
  Beta  occ. eigenvalues --   -0.44765  -0.44624  -0.44587  -0.44531  -0.44422
  Beta  occ. eigenvalues --   -0.44282  -0.44225  -0.44088  -0.43989  -0.43900
  Beta  occ. eigenvalues --   -0.43759  -0.43573  -0.43378  -0.43048  -0.42913
  Beta  occ. eigenvalues --   -0.42713  -0.42563  -0.42285  -0.41969  -0.41639
  Beta  occ. eigenvalues --   -0.41499  -0.41360  -0.41083  -0.40898  -0.40826
  Beta  occ. eigenvalues --   -0.40643  -0.40506  -0.40408  -0.40307  -0.40221
  Beta  occ. eigenvalues --   -0.40154  -0.40019  -0.39774  -0.39581  -0.39513
  Beta  occ. eigenvalues --   -0.39299  -0.39281  -0.39267  -0.39185  -0.39080
  Beta  occ. eigenvalues --   -0.38847  -0.38728  -0.38664  -0.38611  -0.38391
  Beta  occ. eigenvalues --   -0.38121  -0.38061  -0.37875  -0.37464  -0.37360
  Beta  occ. eigenvalues --   -0.36797  -0.36478  -0.34549  -0.33918  -0.33355
  Beta  occ. eigenvalues --   -0.33279  -0.33277  -0.32972  -0.32539  -0.32516
  Beta  occ. eigenvalues --   -0.32367  -0.32108  -0.32083  -0.31977  -0.31969
  Beta  occ. eigenvalues --   -0.31852  -0.31622  -0.31441  -0.29834  -0.29308
  Beta  occ. eigenvalues --   -0.29194  -0.28762  -0.28621  -0.28519  -0.28340
  Beta  occ. eigenvalues --   -0.28197  -0.28133  -0.27878  -0.24718  -0.24220
  Beta  occ. eigenvalues --   -0.23447
  Beta virt. eigenvalues --   -0.22063  -0.11355  -0.11140  -0.09913  -0.09560
  Beta virt. eigenvalues --   -0.08696  -0.07938  -0.07699  -0.07574  -0.07437
  Beta virt. eigenvalues --   -0.07140  -0.07034  -0.06994  -0.06712  -0.06292

 Mulliken atomic charges:
              1
     1  C   -0.305104
     2  C    0.104571
     3  C    0.053956
     4  C    0.043717
     5  C    0.097530
     6  C    0.111509
     7  C    0.048265
     8  C    0.046763
     9  C    0.093551
    10  C    0.035597
    11  C    0.070978
    12  C    0.082773
    13  C   -0.002090
    14  C   -0.006511
    15  C    0.066507
    16  C    0.087600
    17  C    0.020284
    18  C    0.057002
    19  C    0.013580
    20  C    0.104183
    21  C   -0.009396
    22  C   -0.003878
    23  C    0.076541
    24  C    0.074103
    25  C    0.026204
    26  N   -0.266290
    27  N   -0.272192
    28  N   -0.275333
    29  N   -0.262515
    30  C    0.060077
    31  C    0.065694
    32  C    0.026610
    33  C    0.071674
    34  C    0.034187
    35  C    0.076840
    36  C    0.021860
    37  C    0.071490
    38  C    0.049155
    39  C    0.000517
    40  C    0.125882
    41  C    0.054142
    42  C    0.055138
    43  C    0.047727
    44  C    0.000308
    45  C    0.131887
    46  C    0.038988
    47  C    0.047087
    48  C    0.001279
    49  C    0.171302
    50  C    0.061049
    51  C    0.118226
    52  C    0.033307
    53  C   -0.003824
    54  C    0.165769
    55  C    0.049313
    56  C    0.130132
    57  C    0.036015
    58  C    0.012228
    59  C    0.171750
    60  C    0.040238
    61  C    0.165739
    62  C   -0.019207
    63  C    0.024513
    64  C    0.001746
    65  C    0.123978
    66  C    0.053674
    67  C    0.055428
    68  C    0.052535
    69  C    0.047570
    70  C    0.120433
    71  C    0.005075
    72  C    0.052563
    73  C   -0.011568
    74  C    0.168957
    75  C    0.046303
    76  C    0.170635
    77  C   -0.010058
    78  H   -0.038804
    79  H   -0.047430
    80  H   -0.035599
    81  H   -0.039289
    82  H   -0.041793
    83  H   -0.019060
    84  H   -0.037206
    85  H   -0.014786
    86  H   -0.039042
    87  H   -0.022811
    88  H   -0.036799
    89  H   -0.033636
    90  O   -0.278414
    91  C    0.123010
    92  O   -0.275203
    93  C    0.111677
    94  O   -0.275549
    95  O   -0.273726
    96  C    0.124683
    97  C    0.124941
    98  H   -0.021816
    99  H   -0.032201
   100  H   -0.023926
   101  H   -0.022784
   102  H   -0.023268
   103  H   -0.026123
   104  H   -0.016423
   105  H   -0.020492
   106  H   -0.025898
   107  H   -0.021642
   108  H    0.004141
   109  H   -0.022908
   110  H   -0.019741
   111  H   -0.027839
   112  H   -0.017987
   113  H   -0.019677
   114  H    0.027199
   115  H    0.043207
   116  H    0.039364
   117  H    0.031418
   118  H    0.030923
   119  H    0.043095
   120  H    0.043722
   121  H    0.029946
   122  H    0.031721
   123  H    0.035256
   124  H    0.030740
   125  H    0.044608
   126  O   -0.273249
   127  H   -0.026984
   128  O   -0.287864
   129  H   -0.041715
   130  H   -0.030552
   131  O   -0.272545
   132  O   -0.272216
   133  H   -0.024735
   134  O   -0.287327
   135  H   -0.031569
   136  O   -0.306190
   137  H   -0.025387
   138  H   -0.024920
   139  O   -0.309226
   140  O   -0.286421
   141  H   -0.026751
   142  O   -0.283436
   143  C    0.141731
   144  O   -0.295190
   145  C    0.124378
   146  O   -0.298052
   147  C    0.125405
   148  O   -0.280223
   149  C    0.141306
   150  H    0.034462
   151  H    0.016180
   152  H    0.017807
   153  H    0.037442
   154  H    0.013902
   155  H    0.017219
   156  H    0.037163
   157  H    0.009780
   158  H    0.035665
   159  H    0.009193
   160  H    0.038408
   161  H    0.039938
   162  C    0.129105
   163  C    0.127852
   164  C    0.129942
   165  C    0.130252
   166  H    0.042761
   167  H    0.028021
   168  H    0.035580
   169  H    0.044279
   170  H    0.028754
   171  H    0.033535
   172  H    0.042071
   173  H    0.031509
   174  H    0.027789
   175  H    0.034105
   176  H    0.032886
   177  H    0.044342
   178  C    0.124768
   179  C    0.127885
   180  C    0.122437
   181  C    0.121345
   182  H    0.030318
   183  H    0.023624
   184  H    0.043932
   185  H    0.034824
   186  H    0.043879
   187  H    0.023278
   188  H    0.043053
   189  H    0.032251
   190  H    0.033395
   191  H    0.042467
   192  H    0.032590
   193  H    0.027692
 Sum of Mulliken atomic charges =   1.00000

 Dipole moment (field-independent basis, Debye):
    X=              0.1024    Y=             -4.9971    Z=              3.2508  Tot=              5.9623
 Quadrupole moment (field-independent basis, Debye-Ang):
   XX=           -428.5031   YY=           -451.4133   ZZ=           -554.8023
   XY=             14.2704   XZ=             45.8399   YZ=             -2.9951

 Normal termination of Gaussian 09 at Tue Feb  3 15:07:12 2015.
