 Gaussian 09, Revision A.02,
 Gaussian 09:  EM64L-G09RevA.02 11-Jun-2009

 -------------------
 #p sp B3LYP/cc-pVDZ
 -------------------

 ------------------------------------------
 Auto Spiro; and yes I said yes I will Yes.
 ------------------------------------------
 Symbolic Z-matrix:
 Charge =  1 Multiplicity = 2

                         Standard orientation:
 ---------------------------------------------------------------------
 Center     Atomic      Atomic             Coordinates (Angstroms)
 Number     Number       Type             X           Y           Z
 ---------------------------------------------------------------------
      1          6           0       -0.020812   -0.011012    0.254683
      2          6           0        0.536287   -1.043583    1.241990
      3          6           0        0.308444   -0.630940    2.569972
      4          6           0       -0.395979    0.652381    2.551170
      5          6           0       -0.595425    1.041096    1.211448
      6          6           0        1.025849    0.551375   -0.714579
      7          6           0        0.634624    0.327000   -2.049034
      8          6           0       -0.650907   -0.373411   -2.052427
      9          6           0       -1.054175   -0.588289   -0.720298
     10          6           0        2.217392    1.189445   -0.409139
     11          6           0        3.046144    1.639238   -1.455454
     12          6           0        2.648196    1.425371   -2.789783
     13          6           0        1.458330    0.766233   -3.088647
     14          6           0       -0.859681    1.475044    3.580255
     15          6           0       -1.503251    2.670385    3.266820
     16          6           0       -1.707915    3.056446    1.927914
     17          6           0       -1.245486    2.221462    0.891504
     18          6           0        1.194776   -2.228753    0.957699
     19          6           0        1.635977   -3.043612    2.018777
     20          6           0        1.401989   -2.633975    3.345719
     21          6           0        0.750610   -1.434370    3.623739
     22          6           0       -1.465341   -0.820505   -3.096141
     23          6           0       -2.656704   -1.479180   -2.803654
     24          6           0       -3.065123   -1.687241   -1.471067
     25          6           0       -2.246575   -1.227518   -0.420728
     26          7           0        4.266837    2.304481   -1.171819
     27          7           0       -2.376189    4.269948    1.624613
     28          7           0        2.311288   -4.263133    1.754156
     29          7           0       -4.284736   -2.354753   -1.194529
     30          6           0       -5.435623   -2.107208   -1.996289
     31          6           0        1.857066   -5.123471    0.715738
     32          6           0       -4.385156   -3.240399   -0.085935
     33          6           0        3.428246   -4.645505    2.547045
     34          6           0        4.348322    3.220355   -0.085585
     35          6           0        5.427677    2.032699   -1.946946
     36          6           0       -3.488060    4.686955    2.407224
     37          6           0       -1.901401    5.106485    0.574988
     38          6           0       -3.607959    6.011089    2.844651
     39          6           0       -4.711986    6.429128    3.591879
     40          6           0       -5.710483    5.511865    3.935453
     41          6           0       -5.593037    4.180087    3.510799
     42          6           0       -4.505386    3.777014    2.749560
     43          6           0        5.441667    3.205067    0.787443
     44          6           0        5.542831    4.120130    1.837751
     45          6           0        4.526720    5.057902    2.047150
     46          6           0        3.419277    5.070653    1.186000
     47          6           0        3.336322    4.173768    0.129978
     48          6           0        6.269095    3.080012   -2.360550
     49          6           0        7.418386    2.832952   -3.101217
     50          6           0        7.750769    1.510174   -3.471949
     51          6           0        6.900927    0.471600   -3.084510
     52          6           0        5.759957    0.726115   -2.319467
     53          6           0       -2.818886    5.698121   -0.316406
     54          6           0       -2.383474    6.531822   -1.340770
     55          6           0       -0.996390    6.773117   -1.513674
     56          6           0       -0.095714    6.173505   -0.637357
     57          6           0       -0.540076    5.355128    0.408952
     58          6           0        0.497961   -5.366826    0.522623
     59          6           0        0.073008   -6.209977   -0.511697
     60          6           0        0.989823   -6.840777   -1.348601
     61          6           0        2.373830   -6.606252   -1.147080
     62          6           0        2.790912   -5.746690   -0.136334
     63          6           0        4.427741   -3.721046    2.873416
     64          6           0        5.523414   -4.086627    3.658459
     65          6           0        5.649250   -5.404234    4.111777
     66          6           0        4.658957   -6.340104    3.779715
     67          6           0        3.560626   -5.964202    3.018960
     68          6           0       -3.377508   -4.187936    0.173780
     69          6           0       -3.480550   -5.057480    1.250706
     70          6           0       -4.603939   -5.022554    2.090475
     71          6           0       -5.616270   -4.091367    1.837195
     72          6           0       -5.495607   -3.204108    0.765044
     73          6           0       -5.794982   -0.811990   -2.364320
     74          6           0       -6.924478   -0.593745   -3.162811
     75          6           0       -7.723897   -1.653913   -3.581476
     76          6           0       -7.368350   -2.973184   -3.199533
     77          6           0       -6.230676   -3.187544   -2.429038
     78          1           0       -2.555753   -1.373023    0.609434
     79          1           0        1.375125   -2.534821   -0.068005
     80          1           0        1.735380   -3.270209    4.159214
     81          1           0        0.579049   -1.142558    4.656903
     82          1           0       -0.711351    1.201819    4.622068
     83          1           0       -1.852763    3.321196    4.061735
     84          1           0       -1.172834   -0.674585   -4.133046
     85          1           0       -3.286463   -1.841567   -3.609502
     86          1           0        1.173971    0.614517   -4.126964
     87          1           0        3.284551    1.783639   -3.592452
     88          1           0       -1.404279    2.508359   -0.143238
     89          1           0        2.517867    1.342949    0.622497
     90          8           0       -4.613567   -5.931346    3.112661
     91          6           0       -5.712568   -5.915625    4.007054
     92          8           0        6.684004   -5.874643    4.874176
     93          6           0        7.708021   -4.966292    5.239618
     94          8           0       -6.827469    5.807676    4.668989
     95          8           0        4.517811    5.992977    3.045248
     96          6           0        5.609109    6.012070    3.949012
     97          6           0       -6.988150    7.137716    5.129883
     98          1           0       -6.378179    3.479087    3.777152
     99          1           0       -4.432470    2.746928    2.414948
    100          1           0        6.230659    2.474245    0.640614
    101          1           0        6.410036    4.079574    2.487024
    102          1           0       -4.770263    7.464296    3.909138
    103          1           0       -2.830952    6.726293    2.593579
    104          1           0        2.638890    5.806142    1.357498
    105          1           0        2.477324    4.200032   -0.533390
    106          1           0       -6.280220   -2.476070    0.584452
    107          1           0       -6.494179   -4.032543    2.470706
    108          1           0       -2.703077   -5.787281    1.456445
    109          1           0       -2.505517   -4.230377   -0.471661
    110          1           0        6.273157   -3.339679    3.893976
    111          1           0        4.345241   -2.699694    2.514998
    112          1           0        4.763016   -7.357406    4.144584
    113          1           0        2.793097   -6.693811    2.780734
    114          1           0        7.316001   -4.132915    5.838486
    115          1           0        8.224635   -4.561312    4.358651
    116          1           0        8.417574   -5.538450    5.840601
    117          1           0        6.558487    6.213055    3.434096
    118          1           0        5.694363    5.066233    4.501077
    119          1           0        5.402962    6.821407    4.652136
    120          1           0       -7.928848    7.152798    5.683852
    121          1           0       -7.047762    7.851501    4.296810
    122          1           0       -6.169699    7.436797    5.798785
    123          1           0       -6.658943   -6.127904    3.490888
    124          1           0       -5.797203   -4.952182    4.527695
    125          1           0       -5.517166   -6.703267    4.737337
    126          8           0        3.209914   -7.256524   -2.006075
    127          1           0        3.844425   -5.545517    0.011313
    128          1           0       -0.989303   -6.383374   -0.642228
    129          1           0       -0.234287   -4.897364    1.170680
    130          1           0       -5.195371    0.030059   -2.035632
    131          1           0       -7.181142    0.422648   -3.438910
    132          8           0       -8.196345   -3.957573   -3.652180
    133          1           0       -5.940118   -4.191608   -2.146534
    134          8           0       -3.202454    7.149384   -2.239509
    135          1           0       -3.874013    5.491891   -0.188156
    136          1           0        0.968078    6.352092   -0.746732
    137          1           0        0.179226    4.908271    1.086898
    138          1           0        5.125538   -0.098703   -2.012539
    139          1           0        7.131806   -0.553504   -3.351742
    140          8           0        8.235212    3.894505   -3.411275
    141          1           0        6.044277    4.107434   -2.095670
    142          8           0        0.674374   -7.688060   -2.371639
    143          6           0       -0.696674   -7.948920   -2.610227
    144          8           0        8.909238    1.351099   -4.184199
    145          6           0        9.304776    0.032521   -4.521853
    146          8           0       -0.662290    7.594328   -2.551456
    147          6           0        0.712537    7.859168   -2.764849
    148          8           0       -8.850094   -1.541878   -4.345074
    149          6           0       -9.250644   -0.242811   -4.740722
    150          1           0       -0.727385   -8.631082   -3.462116
    151          1           0       -1.246724   -7.031184   -2.860185
    152          1           0       -1.175800   -8.428139   -1.745217
    153          1           0      -10.159642   -0.376797   -5.330394
    154          1           0       -8.486290    0.247061   -5.359742
    155          1           0       -9.471576    0.395617   -3.874129
    156          1           0        0.758434    8.518214   -3.634031
    157          1           0        1.167582    8.365306   -1.902278
    158          1           0        1.274810    6.939392   -2.976795
    159          1           0        8.570309   -0.457618   -5.175352
    160          1           0        9.455512   -0.584167   -3.625812
    161          1           0       10.252107    0.131277   -5.055307
    162          6           0       -7.896447   -5.294949   -3.292902
    163          6           0       -4.598619    6.942870   -2.116129
    164          6           0        8.324371    4.228892   -4.797519
    165          6           0        4.605082   -7.073806   -1.840448
    166          1           0       -5.058174    7.531031   -2.912868
    167          1           0       -4.865015    5.885120   -2.246431
    168          1           0       -4.975728    7.289076   -1.144319
    169          1           0       -8.683527   -5.906497   -3.738226
    170          1           0       -7.900901   -5.432646   -2.203252
    171          1           0       -6.922591   -5.612829   -3.689607
    172          1           0        5.079179   -7.693712   -2.603911
    173          1           0        4.941442   -7.398944   -0.846763
    174          1           0        4.897718   -6.025749   -1.991685
    175          1           0        7.332935    4.467920   -5.205816
    176          1           0        8.774649    3.418916   -5.379305
    177          1           0        8.959419    5.116354   -4.852590
 ---------------------------------------------------------------------

 SCF Done:  E(UB3LYP) =  -4406.41668845     A.U. after   20 cycles

 Alpha virt. eigenvalues --    0.44719   0.44752   0.44788   0.44958   0.45000
 Alpha virt. eigenvalues --    0.45070   0.45117   0.45220   0.45332   0.45434
 Alpha virt. eigenvalues --    0.45557   0.45632   0.45900   0.46229   0.46373

  Beta  occ. eigenvalues --  -19.23424 -19.23389 -19.23217 -19.23214 -19.23183
  Beta  occ. eigenvalues --  -19.23166 -19.23135 -19.23076 -19.23064 -19.22860
  Beta  occ. eigenvalues --  -19.22835 -19.20801 -14.43769 -14.43732 -14.43547
  Beta  occ. eigenvalues --  -14.43431 -10.31271 -10.31196 -10.31170 -10.31124
  Beta  occ. eigenvalues --  -10.31092 -10.31074 -10.30978 -10.30959 -10.30944
  Beta  occ. eigenvalues --  -10.30835 -10.30711 -10.30478 -10.30459 -10.30344
  Beta  occ. eigenvalues --  -10.30289 -10.30056 -10.29933 -10.29930 -10.29802
  Beta  occ. eigenvalues --  -10.29785 -10.29783 -10.29755 -10.29748 -10.29707
  Beta  occ. eigenvalues --  -10.29665 -10.29529 -10.29456 -10.29395 -10.29341
  Beta  occ. eigenvalues --  -10.29257 -10.29199 -10.29159 -10.29106 -10.29104
  Beta  occ. eigenvalues --  -10.29085 -10.28822 -10.27971 -10.26898 -10.26879
  Beta  occ. eigenvalues --  -10.26782 -10.26774 -10.26553 -10.26512 -10.26390
  Beta  occ. eigenvalues --  -10.26374 -10.26342 -10.26317 -10.26210 -10.26204
  Beta  occ. eigenvalues --  -10.26151 -10.26110 -10.26037 -10.25992 -10.25983
  Beta  occ. eigenvalues --  -10.25957 -10.25956 -10.25928 -10.25895 -10.25864
  Beta  occ. eigenvalues --  -10.25859 -10.25797 -10.25792 -10.25783 -10.25707
  Beta  occ. eigenvalues --  -10.25703 -10.25611 -10.25545 -10.25529 -10.25493
  Beta  occ. eigenvalues --  -10.25453 -10.25448 -10.25445 -10.25405 -10.25334
  Beta  occ. eigenvalues --  -10.25268 -10.25250 -10.25244 -10.25230 -10.25222
  Beta  occ. eigenvalues --  -10.25222 -10.25165 -10.25136 -10.25022 -10.25022
  Beta  occ. eigenvalues --  -10.24880  -1.13783  -1.13756  -1.13510  -1.13220
  Beta  occ. eigenvalues --   -1.12946  -1.12774  -1.12742  -1.12691  -1.11822
  Beta  occ. eigenvalues --   -1.11792  -1.11544  -1.10096  -1.03776  -1.03739
  Beta  occ. eigenvalues --   -1.03629  -1.03546  -0.97638  -0.94683  -0.92412
  Beta  occ. eigenvalues --   -0.92392  -0.92274  -0.92240  -0.92198  -0.92067
  Beta  occ. eigenvalues --   -0.91164  -0.90880  -0.90142  -0.90008  -0.87914
  Beta  occ. eigenvalues --   -0.85786  -0.84516  -0.83447  -0.83343  -0.83240
  Beta  occ. eigenvalues --   -0.82916  -0.82491  -0.82380  -0.82262  -0.82058
  Beta  occ. eigenvalues --   -0.81936  -0.81859  -0.81714  -0.81684  -0.81540
  Beta  occ. eigenvalues --   -0.81488  -0.81466  -0.81326  -0.81216  -0.80191
  Beta  occ. eigenvalues --   -0.80086  -0.78190  -0.78110  -0.76775  -0.76638
  Beta  occ. eigenvalues --   -0.76545  -0.76486  -0.76376  -0.76313  -0.76245
  Beta  occ. eigenvalues --   -0.75633  -0.75169  -0.74721  -0.73948  -0.73701
  Beta  occ. eigenvalues --   -0.73412  -0.71524  -0.70763  -0.69632  -0.68950
  Beta  occ. eigenvalues --   -0.68721  -0.68546  -0.68182  -0.67728  -0.67548
  Beta  occ. eigenvalues --   -0.67239  -0.67153  -0.66926  -0.66871  -0.66439
  Beta  occ. eigenvalues --   -0.66332  -0.66288  -0.66033  -0.65597  -0.65402
  Beta  occ. eigenvalues --   -0.65343  -0.63601  -0.63508  -0.63328  -0.62548
  Beta  occ. eigenvalues --   -0.61090  -0.61029  -0.60892  -0.60568  -0.60410
  Beta  occ. eigenvalues --   -0.60350  -0.60144  -0.59501  -0.59318  -0.58870
  Beta  occ. eigenvalues --   -0.58826  -0.58297  -0.58241  -0.58055  -0.57891
  Beta  occ. eigenvalues --   -0.57853  -0.57450  -0.57070  -0.56396  -0.56358
  Beta  occ. eigenvalues --   -0.56261  -0.56089  -0.55532  -0.55232  -0.55208
  Beta  occ. eigenvalues --   -0.54842  -0.54618  -0.54504  -0.54340  -0.53835
  Beta  occ. eigenvalues --   -0.53439  -0.53352  -0.53318  -0.53095  -0.53059
  Beta  occ. eigenvalues --   -0.52923  -0.52797  -0.52634  -0.52622  -0.52531
  Beta  occ. eigenvalues --   -0.51935  -0.51892  -0.51677  -0.51642  -0.51610
  Beta  occ. eigenvalues --   -0.51518  -0.51476  -0.51403  -0.51362  -0.51334
  Beta  occ. eigenvalues --   -0.51321  -0.51140  -0.51114  -0.50988  -0.50881
  Beta  occ. eigenvalues --   -0.50607  -0.50521  -0.50297  -0.50093  -0.49985
  Beta  occ. eigenvalues --   -0.49855  -0.49800  -0.49550  -0.49279  -0.49205
  Beta  occ. eigenvalues --   -0.49086  -0.49028  -0.49024  -0.48487  -0.48406
  Beta  occ. eigenvalues --   -0.48320  -0.48100  -0.47971  -0.47889  -0.47826
  Beta  occ. eigenvalues --   -0.47805  -0.47751  -0.47706  -0.47521  -0.46661
  Beta  occ. eigenvalues --   -0.46569  -0.46269  -0.46119  -0.46058  -0.45807
  Beta  occ. eigenvalues --   -0.45706  -0.45661  -0.45033  -0.44976  -0.44878
  Beta  occ. eigenvalues --   -0.44739  -0.44700  -0.44586  -0.44515  -0.44488
  Beta  occ. eigenvalues --   -0.44303  -0.44052  -0.44030  -0.43882  -0.43717
  Beta  occ. eigenvalues --   -0.43570  -0.43449  -0.43247  -0.43163  -0.43123
  Beta  occ. eigenvalues --   -0.42703  -0.42589  -0.42549  -0.42488  -0.41954
  Beta  occ. eigenvalues --   -0.41321  -0.40756  -0.40614  -0.40477  -0.40126
  Beta  occ. eigenvalues --   -0.40019  -0.39972  -0.39851  -0.39810  -0.39616
  Beta  occ. eigenvalues --   -0.39533  -0.39196  -0.39058  -0.39008  -0.38981
  Beta  occ. eigenvalues --   -0.38823  -0.38789  -0.38772  -0.38761  -0.38703
  Beta  occ. eigenvalues --   -0.38655  -0.38476  -0.38457  -0.38410  -0.38388
  Beta  occ. eigenvalues --   -0.38154  -0.37456  -0.37299  -0.35025  -0.34557
  Beta  occ. eigenvalues --   -0.33892  -0.33324  -0.32827  -0.32740  -0.32487
  Beta  occ. eigenvalues --   -0.32378  -0.32179  -0.32134  -0.31872  -0.31788
  Beta  occ. eigenvalues --   -0.31271  -0.30733  -0.30696  -0.30577  -0.30555
  Beta  occ. eigenvalues --   -0.29493  -0.28897  -0.28528  -0.27858  -0.27651
  Beta  occ. eigenvalues --   -0.27625  -0.24349  -0.24233  -0.22930
  Beta virt. eigenvalues --   -0.21469  -0.10892  -0.10681  -0.09614  -0.09498
  Beta virt. eigenvalues --   -0.08660  -0.08130  -0.07417  -0.07345  -0.07136
  Beta virt. eigenvalues --   -0.07094  -0.07015  -0.06970  -0.06785  -0.06266

 Mulliken atomic charges:
              1
     1  C   -0.301409
     2  C    0.101044
     3  C    0.045890
     4  C    0.046130
     5  C    0.101778
     6  C    0.100761
     7  C    0.044320
     8  C    0.044269
     9  C    0.100810
    10  C    0.017928
    11  C    0.082711
    12  C    0.069445
    13  C   -0.005377
    14  C   -0.005185
    15  C    0.067973
    16  C    0.082259
    17  C    0.026469
    18  C    0.025476
    19  C    0.079474
    20  C    0.070366
    21  C   -0.005137
    22  C   -0.005966
    23  C    0.069326
    24  C    0.087349
    25  C    0.016532
    26  N   -0.266975
    27  N   -0.262980
    28  N   -0.263156
    29  N   -0.264961
    30  C    0.032676
    31  C    0.043073
    32  C    0.037387
    33  C    0.034302
    34  C    0.039942
    35  C    0.056691
    36  C    0.034370
    37  C    0.038620
    38  C    0.042406
    39  C    0.001834
    40  C    0.126937
    41  C    0.055133
    42  C    0.052917
    43  C    0.046898
    44  C    0.003885
    45  C    0.128129
    46  C    0.040240
    47  C    0.046933
    48  C    0.075097
    49  C    0.065319
    50  C    0.137229
    51  C    0.016497
    52  C    0.036271
    53  C    0.015567
    54  C    0.138484
    55  C    0.119461
    56  C    0.006771
    57  C    0.031514
    58  C    0.030575
    59  C    0.007110
    60  C    0.119232
    61  C    0.138761
    62  C    0.012330
    63  C    0.043792
    64  C    0.001909
    65  C    0.127083
    66  C    0.055192
    67  C    0.051009
    68  C    0.047269
    69  C    0.040516
    70  C    0.127383
    71  C    0.002032
    72  C    0.044945
    73  C    0.034942
    74  C    0.016161
    75  C    0.119347
    76  C    0.138466
    77  C    0.013846
    78  H   -0.034876
    79  H   -0.035345
    80  H   -0.018546
    81  H   -0.040457
    82  H   -0.040519
    83  H   -0.017963
    84  H   -0.041472
    85  H   -0.018441
    86  H   -0.041585
    87  H   -0.020257
    88  H   -0.034761
    89  H   -0.035860
    90  O   -0.274224
    91  C    0.124631
    92  O   -0.273231
    93  C    0.124866
    94  O   -0.274555
    95  O   -0.274652
    96  C    0.124662
    97  C    0.124077
    98  H   -0.019670
    99  H   -0.026595
   100  H   -0.022507
   101  H   -0.023088
   102  H   -0.021151
   103  H   -0.021058
   104  H   -0.019559
   105  H   -0.026492
   106  H   -0.022024
   107  H   -0.022499
   108  H   -0.018727
   109  H   -0.025972
   110  H   -0.025038
   111  H   -0.027190
   112  H   -0.015418
   113  H   -0.019919
   114  H    0.030628
   115  H    0.029546
   116  H    0.045239
   117  H    0.034188
   118  H    0.029258
   119  H    0.042939
   120  H    0.044356
   121  H    0.031088
   122  H    0.032480
   123  H    0.032306
   124  H    0.030755
   125  H    0.043812
   126  O   -0.265202
   127  H   -0.028757
   128  H   -0.026633
   129  H   -0.028491
   130  H   -0.034205
   131  H   -0.027461
   132  O   -0.264559
   133  H   -0.032244
   134  O   -0.265144
   135  H   -0.029970
   136  H   -0.025078
   137  H   -0.029250
   138  H   -0.031576
   139  H   -0.025471
   140  O   -0.292997
   141  H   -0.027730
   142  O   -0.260518
   143  C    0.127324
   144  O   -0.278520
   145  C    0.127145
   146  O   -0.260753
   147  C    0.127036
   148  O   -0.260652
   149  C    0.126856
   150  H    0.043692
   151  H    0.026738
   152  H    0.032299
   153  H    0.044800
   154  H    0.029323
   155  H    0.028864
   156  H    0.043663
   157  H    0.032947
   158  H    0.027852
   159  H    0.030699
   160  H    0.031401
   161  H    0.045180
   162  C    0.129040
   163  C    0.129204
   164  C    0.130058
   165  C    0.128853
   166  H    0.043504
   167  H    0.026482
   168  H    0.031805
   169  H    0.044214
   170  H    0.029800
   171  H    0.027804
   172  H    0.043551
   173  H    0.033315
   174  H    0.025794
   175  H    0.010566
   176  H    0.031135
   177  H    0.037438
 Sum of Mulliken atomic charges =   1.00000

 Dipole moment (field-independent basis, Debye):
    X=              0.0381    Y=              0.5051    Z=              1.7945  Tot=              1.8646
 Quadrupole moment (field-independent basis, Debye-Ang):
   XX=           -377.3424   YY=           -437.5830   ZZ=           -487.7652
   XY=            -16.5999   XZ=             -5.7303   YZ=             11.2834

 Normal termination of Gaussian 09 at Tue Feb  3 16:53:01 2015.
