 Gaussian 09, Revision A.02,
 Gaussian 09:  EM64L-G09RevA.02 11-Jun-2009

 -------------------
 #p sp B3LYP/cc-pVDZ
 -------------------

 ------------------------------------------
 Auto Spiro; and yes I said yes I will Yes.
 ------------------------------------------
 Symbolic Z-matrix:
 Charge =  1 Multiplicity = 2

                         Standard orientation:
 ---------------------------------------------------------------------
 Center     Atomic      Atomic             Coordinates (Angstroms)
 Number     Number       Type             X           Y           Z
 ---------------------------------------------------------------------
      1          6           0       -0.013749    0.092784   -0.242204
      2          6           0       -0.729903   -0.833780   -1.228218
      3          6           0       -0.455133   -0.457645   -2.556561
      4          6           0        0.458570    0.688742   -2.539112
      5          6           0        0.721541    1.036253   -1.200069
      6          6           0       -0.979303    0.767138    0.739183
      7          6           0       -0.618531    0.474165    2.069553
      8          6           0        0.580776   -0.367292    2.058321
      9          6           0        0.938202   -0.624252    0.720651
     10          6           0       -2.116330    1.500992    0.444125
     11          6           0       -2.928174    1.968288    1.496025
     12          6           0       -2.553889    1.697712    2.824864
     13          6           0       -1.413054    0.951751    3.113960
     14          6           0        1.085420    1.399377   -3.566706
     15          6           0        1.975585    2.423040   -3.249607
     16          6           0        2.269689    2.742234   -1.909338
     17          6           0        1.613541    2.046447   -0.877881
     18          6           0       -1.579287   -1.888601   -0.937291
     19          6           0       -2.167243   -2.609351   -1.989883
     20          6           0       -1.880550   -2.247368   -3.319079
     21          6           0       -1.038919   -1.173548   -3.605629
     22          6           0        1.351963   -0.912715    3.087314
     23          6           0        2.451018   -1.710916    2.774919
     24          6           0        2.806968   -1.966459    1.437851
     25          6           0        2.036906   -1.403541    0.402427
     26          7           0       -4.133822    2.666733    1.224578
     27          7           0        3.217008    3.749306   -1.596139
     28          7           0       -3.026817   -3.707670   -1.701827
     29          7           0        3.937698   -2.769631    1.138521
     30          6           0        5.088241   -2.679498    1.967406
     31          6           0       -2.655975   -4.575579   -0.634088
     32          6           0        3.929205   -3.682801    0.047727
     33          6           0       -4.311792   -3.825530   -2.285468
     34          6           0       -4.230202    3.607003    0.164313
     35          6           0       -5.262883    2.446469    2.060825
     36          6           0        4.455310    3.848501   -2.274322
     37          6           0        2.932246    4.651387   -0.531399
     38          6           0        5.120686    5.076599   -2.380501
     39          6           0        6.362238    5.180843   -3.013596
     40          6           0        6.960918    4.050802   -3.575584
     41          6           0        6.302437    2.817702   -3.480226
     42          6           0        5.078617    2.714825   -2.833769
     43          6           0       -5.436614    3.790716   -0.521354
     44          6           0       -5.555474    4.732293   -1.547838
     45          6           0       -4.450520    5.500496   -1.921470
     46          6           0       -3.237450    5.321249   -1.241963
     47          6           0       -3.130248    4.401621   -0.209588
     48          6           0       -5.792493    3.507298    2.843817
     49          6           0       -6.888804    3.308450    3.678476
     50          6           0       -7.463927    2.033159    3.780930
     51          6           0       -6.955234    0.969494    3.038771
     52          6           0       -5.869227    1.184735    2.178784
     53          6           0        3.466558    4.453120    0.753923
     54          6           0        3.194659    5.349834    1.799749
     55          6           0        2.363601    6.444780    1.549612
     56          6           0        1.807444    6.661673    0.283579
     57          6           0        2.097771    5.769610   -0.749157
     58          6           0       -1.584181   -5.469986   -0.768295
     59          6           0       -1.172102   -6.292326    0.288053
     60          6           0       -1.852543   -6.228590    1.503328
     61          6           0       -2.927040   -5.342811    1.672508
     62          6           0       -3.308812   -4.508293    0.624636
     63          6           0       -4.961950   -2.736392   -2.883840
     64          6           0       -6.224136   -2.874128   -3.467759
     65          6           0       -6.879650   -4.107943   -3.449675
     66          6           0       -6.247441   -5.198284   -2.839702
     67          6           0       -4.986662   -5.062486   -2.274775
     68          6           0        2.742516   -4.321928   -0.359466
     69          6           0        2.736732   -5.204066   -1.429603
     70          6           0        3.924990   -5.504817   -2.110894
     71          6           0        5.115089   -4.897909   -1.702963
     72          6           0        5.108326   -3.987582   -0.641251
     73          6           0        5.800142   -1.478065    2.115727
     74          6           0        6.912249   -1.378981    2.962583
     75          6           0        7.342186   -2.505705    3.660477
     76          6           0        6.660163   -3.724318    3.528492
     77          6           0        5.537858   -3.805212    2.708219
     78          1           0        2.305145   -1.582422   -0.633721
     79          1           0       -1.804230   -2.152993    0.090550
     80          1           0       -2.326757   -2.816316   -4.128923
     81          1           0       -0.832882   -0.912424   -4.640764
     82          1           0        0.886317    1.163217   -4.609322
     83          1           0        2.462754    2.983402   -4.040944
     84          1           0        1.096564   -0.735058    4.129339
     85          1           0        3.044479   -2.149671    3.570518
     86          1           0       -1.154282    0.745533    4.149821
     87          1           0       -3.176284    2.069111    3.632402
     88          1           0        1.844111    2.273318    0.157103
     89          1           0       -2.396066    1.694338   -0.586681
     90          8           0        3.813287   -6.397313   -3.147115
     91          6           0        4.982620   -6.708906   -3.879863
     92          8           0       -8.118016   -4.352159   -3.988955
     93          6           0       -8.788544   -3.274920   -4.614839
     94          8           0        8.169337    4.039131   -4.227187
     95          8           0       -4.447061    6.443805   -2.916926
     96          6           0       -5.645767    6.642240   -3.642884
     97          6           0        8.860136    5.266655   -4.357215
     98          1           0        6.776675    1.940769   -3.911037
     99          1           0        4.594715    1.746771   -2.762149
    100          1           0       -6.304452    3.200686   -0.244478
    101          1           0        6.839668    6.153035   -3.068392
    102          1           0        4.666654    5.967784   -1.961200
    103          1           0       -2.385829    5.928324   -1.533547
    104          1           0       -2.186954    4.294279    0.314724
    105          1           0        6.041134   -3.519376   -0.342890
    106          1           0        6.053020   -5.107713   -2.205236
    107          1           0        1.808140   -5.666863   -1.749476
    108          1           0        1.813084   -4.118490    0.160709
    109          1           0       -6.683590   -2.003543   -3.922975
    110          1           0       -4.480160   -1.765403   -2.901334
    111          1           0       -6.760345   -6.155350   -2.824420
    112          1           0       -4.518865   -5.923194   -1.808434
    113          1           0       -8.217140   -2.879329   -5.466295
    114          1           0       -8.989321   -2.455201   -3.910659
    115          1           0       -9.737409   -3.677573   -4.975774
    116          1           0       -6.463981    6.982356   -2.992692
    117          1           0       -5.961557    5.727450   -4.163341
    118          1           0       -5.428044    7.417714   -4.380314
    119          1           0        9.779669    5.040657   -4.901554
    120          1           0        9.116950    5.695920   -3.378370
    121          1           0        8.276510    6.004411   -4.925689
    122          1           0        5.748359   -7.178543   -3.246212
    123          1           0        5.414193   -5.817613   -4.356393
    124          1           0        4.675838   -7.416113   -4.653565
    125          1           0       -3.414130   -5.311899    2.638427
    126          8           0       -4.285999   -3.568209    0.726951
    127          1           0       -0.328883   -6.950223    0.121926
    128          8           0       -0.835506   -5.517760   -1.922128
    129          8           0        5.389766   -0.320013    1.497937
    130          1           0        7.407395   -0.419350    3.037063
    131          1           0        7.017594   -4.572282    4.098456
    132          8           0        4.792075   -4.933066    2.561531
    133          1           0        3.615701    5.186603    2.780911
    134          8           0        4.233489    3.340344    0.906555
    135          1           0        1.171105    7.525835    0.144322
    136          8           0        1.622969    5.901276   -2.017057
    137          8           0       -5.380352    0.078853    1.525373
    138          1           0       -7.368589   -0.029526    3.089089
    139          1           0       -7.303978    4.105439    4.281742
    140          8           0       -5.144803    4.696912    2.721715
    141          8           0       -1.550065   -6.986859    2.596878
    142          6           0       -0.444643   -7.872348    2.509569
    143          8           0       -8.522972    1.942174    4.638613
    144          6           0       -9.145810    0.677621    4.797857
    145          8           0        2.029074    7.375866    2.491703
    146          6           0        2.525849    7.214332    3.809541
    147          8           0        8.419258   -2.531975    4.500458
    148          6           0        9.156644   -1.333211    4.676211
    149          1           0       -0.371897   -8.356062    3.485584
    150          1           0        0.487615   -7.332474    2.299154
    151          1           0       -0.600005   -8.636790    1.736771
    152          1           0        9.961362   -1.575972    5.372859
    153          1           0        8.534742   -0.535559    5.103648
    154          1           0        9.588926   -0.982901    3.729666
    155          1           0        2.127109    8.052890    4.383807
    156          1           0        3.623273    7.248020    3.836215
    157          1           0        2.182961    6.272687    4.258189
    158          1           0       -9.573333    0.316417    3.853174
    159          1           0       -9.947894    0.828025    5.522971
    160          1           0       -8.442761   -0.072356    5.183509
    161          6           0        5.200600   -6.108296    3.241204
    162          6           0        4.706442    3.003804    2.206247
    163          1           0       -6.511138    4.843884   -2.048003
    164          6           0       -5.633141    5.812741    3.448078
    165          6           0       -4.888100   -3.353769    1.998919
    166          1           0       -5.519386   -2.472492    1.885752
    167          1           0       -4.130778   -3.150475    2.765606
    168          1           0       -5.492344   -4.218648    2.302092
    169          1           0        4.477859   -6.877229    2.962729
    170          1           0        5.185373   -5.970780    4.330542
    171          1           0        6.205161   -6.424412    2.931641
    172          1           0        5.177147    2.025207    2.107347
    173          1           0        3.879089    2.930849    2.923143
    174          1           0        5.437383    3.740134    2.566461
    175          1           0       -5.588789    5.639291    4.531387
    176          1           0       -6.664843    6.057209    3.163934
    177          1           0       -4.977923    6.645343    3.186565
    178          6           0        5.573529   -0.250001    0.078098
    179          6           0        0.761498    6.991053   -2.304474
    180          6           0       -5.522290    0.049995    0.099839
    181          6           0       -1.456635   -6.134875   -3.051346
    182          1           0        0.491984    6.886962   -3.356796
    183          1           0        1.264081    7.954945   -2.149363
    184          1           0       -0.148185    6.958295   -1.691122
    185          1           0       -0.720973   -6.094921   -3.857424
    186          1           0       -2.363664   -5.603864   -3.355350
    187          1           0       -1.702742   -7.183446   -2.834811
    188          1           0       -5.114041   -0.910193   -0.220609
    189          1           0       -6.582160    0.111542   -0.181521
    190          1           0       -4.969909    0.863133   -0.378722
    191          1           0        5.212060    0.735315   -0.221525
    192          1           0        5.002861   -1.025965   -0.440063
    193          1           0        6.637512   -0.345307   -0.176153
 ---------------------------------------------------------------------

 SCF Done:  E(UB3LYP) =  -4864.52663282     A.U. after   24 cycles

 Alpha virt. eigenvalues --    0.62492   0.62568   0.62628   0.62767   0.62862
 Alpha virt. eigenvalues --    0.62964   0.62978   0.63094   0.63263   0.63383
 Alpha virt. eigenvalues --    0.63582   0.63687   0.63772   0.64005   0.64123

  Beta  occ. eigenvalues --  -19.23738 -19.23634 -19.23549 -19.23523 -19.23448
  Beta  occ. eigenvalues --  -19.23361 -19.23203 -19.23185 -19.23142 -19.22831
  Beta  occ. eigenvalues --  -19.22656 -19.22426 -19.22369 -19.22313 -19.22181
  Beta  occ. eigenvalues --  -19.21823 -14.43559 -14.43298 -14.42759 -14.42607
  Beta  occ. eigenvalues --  -10.31850 -10.31627 -10.31603 -10.31548 -10.31489
  Beta  occ. eigenvalues --  -10.31427 -10.31408 -10.31346 -10.31269 -10.31226
  Beta  occ. eigenvalues --  -10.31063 -10.30780 -10.30454 -10.30268 -10.30139
  Beta  occ. eigenvalues --  -10.30054 -10.29967 -10.29926 -10.29916 -10.29904
  Beta  occ. eigenvalues --  -10.29893 -10.29890 -10.29814 -10.29720 -10.29672
  Beta  occ. eigenvalues --  -10.29582 -10.29571 -10.29537 -10.29533 -10.29432
  Beta  occ. eigenvalues --  -10.29364 -10.29293 -10.29155 -10.29140 -10.29067
  Beta  occ. eigenvalues --  -10.28996 -10.28779 -10.28760 -10.28683 -10.28555
  Beta  occ. eigenvalues --  -10.28421 -10.28202 -10.28188 -10.27838 -10.27328
  Beta  occ. eigenvalues --  -10.26344 -10.26301 -10.26153 -10.26148 -10.26019
  Beta  occ. eigenvalues --  -10.25959 -10.25914 -10.25888 -10.25854 -10.25825
  Beta  occ. eigenvalues --  -10.25742 -10.25648 -10.25586 -10.25528 -10.25470
  Beta  occ. eigenvalues --  -10.25410 -10.25391 -10.25344 -10.25189 -10.25137
  Beta  occ. eigenvalues --  -10.25116 -10.25067 -10.25063 -10.24979 -10.24847
  Beta  occ. eigenvalues --  -10.24801 -10.24785 -10.24765 -10.24728 -10.24679
  Beta  occ. eigenvalues --  -10.24646 -10.24597 -10.24577 -10.24477 -10.24448
  Beta  occ. eigenvalues --  -10.24385 -10.24321 -10.24269 -10.24256 -10.24230
  Beta  occ. eigenvalues --  -10.24206 -10.24147 -10.24083 -10.23832  -1.13646
  Beta  occ. eigenvalues --   -1.13443  -1.13428  -1.13246  -1.13135  -1.12935
  Beta  occ. eigenvalues --   -1.12810  -1.12765  -1.12759  -1.12314  -1.12112
  Beta  occ. eigenvalues --   -1.11925  -1.11851  -1.11778  -1.11733  -1.11483
  Beta  occ. eigenvalues --   -1.03045  -1.02920  -1.02532  -1.02432  -0.97102
  Beta  occ. eigenvalues --   -0.94111  -0.91872  -0.91727  -0.91686  -0.91613
  Beta  occ. eigenvalues --   -0.91461  -0.91427  -0.90707  -0.90354  -0.89775
  Beta  occ. eigenvalues --   -0.89511  -0.87400  -0.85295  -0.84044  -0.83088
  Beta  occ. eigenvalues --   -0.82975  -0.82862  -0.82708  -0.82359  -0.82174
  Beta  occ. eigenvalues --   -0.82043  -0.81930  -0.81820  -0.81640  -0.81582
  Beta  occ. eigenvalues --   -0.81309  -0.81130  -0.81068  -0.80867  -0.80702
  Beta  occ. eigenvalues --   -0.80459  -0.80085  -0.79615  -0.78006  -0.77971
  Beta  occ. eigenvalues --   -0.77419  -0.76633  -0.76469  -0.76408  -0.76342
  Beta  occ. eigenvalues --   -0.76276  -0.76260  -0.76098  -0.75556  -0.75332
  Beta  occ. eigenvalues --   -0.75313  -0.75156  -0.74909  -0.74528  -0.73979
  Beta  occ. eigenvalues --   -0.73131  -0.72673  -0.70806  -0.69892  -0.68782
  Beta  occ. eigenvalues --   -0.68335  -0.67898  -0.67768  -0.67144  -0.66777
  Beta  occ. eigenvalues --   -0.66604  -0.66451  -0.66285  -0.66071  -0.65817
  Beta  occ. eigenvalues --   -0.65673  -0.65624  -0.65427  -0.65286  -0.65078
  Beta  occ. eigenvalues --   -0.64958  -0.64639  -0.63416  -0.63392  -0.63174
  Beta  occ. eigenvalues --   -0.62463  -0.60917  -0.60638  -0.60519  -0.60357
  Beta  occ. eigenvalues --   -0.60174  -0.59935  -0.59698  -0.59657  -0.59051
  Beta  occ. eigenvalues --   -0.58784  -0.58644  -0.58401  -0.58338  -0.58288
  Beta  occ. eigenvalues --   -0.58133  -0.57776  -0.57717  -0.57283  -0.57265
  Beta  occ. eigenvalues --   -0.57046  -0.56387  -0.55712  -0.55674  -0.55635
  Beta  occ. eigenvalues --   -0.55449  -0.55301  -0.55231  -0.55047  -0.54919
  Beta  occ. eigenvalues --   -0.54673  -0.54361  -0.53898  -0.53812  -0.53512
  Beta  occ. eigenvalues --   -0.53442  -0.53357  -0.53338  -0.53159  -0.53054
  Beta  occ. eigenvalues --   -0.53000  -0.52658  -0.52590  -0.52445  -0.52422
  Beta  occ. eigenvalues --   -0.52354  -0.52290  -0.52103  -0.52022  -0.51852
  Beta  occ. eigenvalues --   -0.51828  -0.51809  -0.51564  -0.51367  -0.51127
  Beta  occ. eigenvalues --   -0.50980  -0.50964  -0.50779  -0.50741  -0.50672
  Beta  occ. eigenvalues --   -0.50631  -0.50572  -0.50502  -0.50463  -0.50388
  Beta  occ. eigenvalues --   -0.50051  -0.49911  -0.49835  -0.49737  -0.49685
  Beta  occ. eigenvalues --   -0.49462  -0.49091  -0.48862  -0.48574  -0.48363
  Beta  occ. eigenvalues --   -0.48238  -0.48177  -0.48069  -0.48052  -0.47959
  Beta  occ. eigenvalues --   -0.47804  -0.47621  -0.47575  -0.47365  -0.47313
  Beta  occ. eigenvalues --   -0.47221  -0.47031  -0.46953  -0.46903  -0.46389
  Beta  occ. eigenvalues --   -0.46159  -0.46027  -0.45685  -0.45551  -0.45495
  Beta  occ. eigenvalues --   -0.45435  -0.45331  -0.45082  -0.45002  -0.44929
  Beta  occ. eigenvalues --   -0.44737  -0.44663  -0.44561  -0.44371  -0.44095
  Beta  occ. eigenvalues --   -0.44032  -0.43867  -0.43725  -0.43681  -0.43505
  Beta  occ. eigenvalues --   -0.43414  -0.43344  -0.42692  -0.42524  -0.42059
  Beta  occ. eigenvalues --   -0.41925  -0.41815  -0.41618  -0.41528  -0.41380
  Beta  occ. eigenvalues --   -0.41300  -0.41171  -0.40899  -0.40780  -0.40720
  Beta  occ. eigenvalues --   -0.40611  -0.40564  -0.40531  -0.40432  -0.40341
  Beta  occ. eigenvalues --   -0.40262  -0.40131  -0.40043  -0.39875  -0.39762
  Beta  occ. eigenvalues --   -0.39729  -0.39469  -0.39301  -0.39168  -0.39073
  Beta  occ. eigenvalues --   -0.39003  -0.38843  -0.38632  -0.38613  -0.38419
  Beta  occ. eigenvalues --   -0.38164  -0.38120  -0.36804  -0.36282  -0.36269
  Beta  occ. eigenvalues --   -0.36176  -0.35738  -0.34401  -0.33962  -0.33897
  Beta  occ. eigenvalues --   -0.33756  -0.33736  -0.33571  -0.33165  -0.32096
  Beta  occ. eigenvalues --   -0.31724  -0.31647  -0.31562  -0.31417  -0.31203
  Beta  occ. eigenvalues --   -0.31020  -0.30946  -0.30597  -0.29279  -0.29047
  Beta  occ. eigenvalues --   -0.28963  -0.28769  -0.28501  -0.28489  -0.28465
  Beta  occ. eigenvalues --   -0.28143  -0.27936  -0.27762  -0.24287  -0.24027
  Beta  occ. eigenvalues --   -0.22770
  Beta virt. eigenvalues --   -0.21268  -0.10130  -0.10007  -0.08882  -0.08682
  Beta virt. eigenvalues --   -0.07787  -0.07130  -0.06906  -0.06745  -0.06665
  Beta virt. eigenvalues --   -0.06489  -0.06327  -0.05954  -0.05831  -0.05494

 Mulliken atomic charges:
              1
     1  C   -0.295532
     2  C    0.092197
     3  C    0.047649
     4  C    0.044933
     5  C    0.093456
     6  C    0.098920
     7  C    0.046118
     8  C    0.047267
     9  C    0.098425
    10  C    0.017275
    11  C    0.116094
    12  C    0.074913
    13  C   -0.010462
    14  C   -0.007429
    15  C    0.077178
    16  C    0.098852
    17  C    0.044993
    18  C    0.043541
    19  C    0.103647
    20  C    0.075904
    21  C   -0.008570
    22  C   -0.012420
    23  C    0.076049
    24  C    0.117291
    25  C    0.017909
    26  N   -0.265198
    27  N   -0.262009
    28  N   -0.271498
    29  N   -0.263879
    30  C    0.006157
    31  C   -0.012311
    32  C    0.101136
    33  C    0.118375
    34  C    0.096949
    35  C   -0.002308
    36  C    0.102058
    37  C   -0.043222
    38  C    0.040996
    39  C   -0.001364
    40  C    0.126106
    41  C    0.048574
    42  C    0.028742
    43  C    0.029653
    44  C   -0.002666
    45  C    0.121419
    46  C    0.058202
    47  C    0.031665
    48  C    0.160290
    49  C   -0.007781
    50  C    0.144428
    51  C    0.006602
    52  C    0.086839
    53  C    0.180236
    54  C   -0.069546
    55  C    0.139204
    56  C   -0.022984
    57  C    0.175953
    58  C    0.091222
    59  C    0.006122
    60  C    0.145352
    61  C   -0.010581
    62  C    0.172532
    63  C   -0.003862
    64  C   -0.004087
    65  C    0.123630
    66  C    0.049438
    67  C    0.037381
    68  C    0.018466
    69  C    0.051703
    70  C    0.125009
    71  C   -0.002770
    72  C    0.027558
    73  C    0.088649
    74  C    0.009643
    75  C    0.144073
    76  C   -0.007190
    77  C    0.157461
    78  H   -0.030849
    79  H   -0.041776
    80  H   -0.025981
    81  H   -0.042881
    82  H   -0.042389
    83  H   -0.019258
    84  H   -0.044821
    85  H   -0.022966
    86  H   -0.045055
    87  H   -0.022176
    88  H   -0.044708
    89  H   -0.032820
    90  O   -0.276324
    91  C    0.126146
    92  O   -0.276809
    93  C    0.127709
    94  O   -0.277181
    95  O   -0.277991
    96  C    0.126578
    97  C    0.125673
    98  H   -0.025136
    99  H   -0.017185
   100  H   -0.029633
   101  H   -0.026412
   102  H   -0.022127
   103  H   -0.032772
   104  H   -0.019101
   105  H   -0.028467
   106  H   -0.026901
   107  H   -0.018586
   108  H   -0.013941
   109  H   -0.031342
   110  H   -0.019048
   111  H   -0.021021
   112  H   -0.023574
   113  H    0.028294
   114  H    0.024863
   115  H    0.041784
   116  H    0.030846
   117  H    0.028133
   118  H    0.040657
   119  H    0.041186
   120  H    0.029017
   121  H    0.030563
   122  H    0.029778
   123  H    0.028773
   124  H    0.040307
   125  H   -0.026563
   126  O   -0.282692
   127  H   -0.035631
   128  O   -0.305908
   129  O   -0.309344
   130  H   -0.039066
   131  H   -0.024364
   132  O   -0.275298
   133  H   -0.041230
   134  O   -0.283536
   135  H   -0.029579
   136  O   -0.275587
   137  O   -0.305910
   138  H   -0.039238
   139  H   -0.025030
   140  O   -0.275829
   141  O   -0.275871
   142  C    0.128236
   143  O   -0.275045
   144  C    0.129943
   145  O   -0.277681
   146  C    0.131633
   147  O   -0.274569
   148  C    0.129710
   149  H    0.040562
   150  H    0.031610
   151  H    0.034170
   152  H    0.043990
   153  H    0.030888
   154  H    0.032339
   155  H    0.041977
   156  H    0.032134
   157  H    0.028209
   158  H    0.031574
   159  H    0.043601
   160  H    0.031244
   161  C    0.131008
   162  C    0.115375
   163  H   -0.027381
   164  C    0.131142
   165  C    0.121786
   166  H    0.046321
   167  H    0.032369
   168  H    0.033566
   169  H    0.039149
   170  H    0.033971
   171  H    0.036828
   172  H    0.049496
   173  H    0.028786
   174  H    0.029966
   175  H    0.033287
   176  H    0.035813
   177  H    0.041917
   178  C    0.106546
   179  C    0.116802
   180  C    0.103855
   181  C    0.122031
   182  H    0.041957
   183  H    0.035164
   184  H    0.046977
   185  H    0.040072
   186  H    0.041708
   187  H    0.020027
   188  H    0.054466
   189  H    0.017842
   190  H    0.041939
   191  H    0.052777
   192  H    0.041945
   193  H    0.020808
 Sum of Mulliken atomic charges =   1.00000

 Dipole moment (field-independent basis, Debye):
    X=              1.0148    Y=              1.9053    Z=              1.8651  Tot=              2.8528
 Quadrupole moment (field-independent basis, Debye-Ang):
   XX=           -407.8713   YY=           -466.8156   ZZ=           -529.5034
   XY=            -16.9673   XZ=             12.5751   YZ=             -3.2236

 Normal termination of Gaussian 09 at Tue Feb  3 18:48:37 2015.
