 Gaussian 09, Revision A.02,
 Gaussian 09:  EM64L-G09RevA.02 11-Jun-2009

 -------------------
 #p opt b3lyp/6-31g*
 -------------------

 ----------
 Auto Spiro
 ----------
 Symbolic Z-matrix:
 Charge =  0 Multiplicity = 1

 SCF Done:  E(RB3LYP) =  -3948.20019607     A.U. after   16 cycles
 SCF Done:  E(RB3LYP) =  -3948.23289024     A.U. after   14 cycles
 SCF Done:  E(RB3LYP) =  -3948.27154074     A.U. after   16 cycles
 SCF Done:  E(RB3LYP) =  -3948.28557469     A.U. after   14 cycles
 SCF Done:  E(RB3LYP) =  -3948.28847194     A.U. after   13 cycles
 SCF Done:  E(RB3LYP) =  -3948.29085273     A.U. after   12 cycles
 SCF Done:  E(RB3LYP) =  -3948.29294994     A.U. after   12 cycles
 SCF Done:  E(RB3LYP) =  -3948.28990496     A.U. after   16 cycles
 SCF Done:  E(RB3LYP) =  -3948.29437812     A.U. after   16 cycles
 SCF Done:  E(RB3LYP) =  -3948.29616179     A.U. after   12 cycles
 SCF Done:  E(RB3LYP) =  -3948.29865371     A.U. after   10 cycles
 SCF Done:  E(RB3LYP) =  -3948.29865885     A.U. after   10 cycles
 SCF Done:  E(RB3LYP) =  -3948.29866091     A.U. after    9 cycles
 SCF Done:  E(RB3LYP) =  -3948.29866163     A.U. after   10 cycles
 SCF Done:  E(RB3LYP) =  -3948.29866121     A.U. after    7 cycles
 SCF Done:  E(RB3LYP) =  -3948.29866125     A.U. after    7 cycles
 SCF Done:  E(RB3LYP) =  -3948.29866126     A.U. after    6 cycles
 SCF Done:  E(RB3LYP) =  -3948.29866131     A.U. after    6 cycles
 SCF Done:  E(RB3LYP) =  -3948.29866134     A.U. after    6 cycles
 SCF Done:  E(RB3LYP) =  -3948.29866131     A.U. after    5 cycles
 Optimization completed.
    -- Stationary point found.

                         Standard orientation:
 ---------------------------------------------------------------------
 Center     Atomic      Atomic             Coordinates (Angstroms)
 Number     Number       Type             X           Y           Z
 ---------------------------------------------------------------------
      1          6           0        0.175792   -0.131311    0.013942
      2          6           0       -0.399155   -1.189373   -0.939345
      3          6           0       -0.152575   -0.831818   -2.277952
      4          6           0        0.550474    0.453299   -2.301297
      5          6           0        0.737122    0.892035   -0.975397
      6          6           0       -0.875002    0.404639    0.990840
      7          6           0       -0.511251    0.108103    2.319409
      8          6           0        0.784866   -0.573948    2.311164
      9          6           0        1.226888   -0.692915    0.979959
     10          6           0       -2.065738    1.048314    0.694845
     11          6           0       -2.915660    1.439203    1.746450
     12          6           0       -2.542766    1.162234    3.075189
     13          6           0       -1.356627    0.490414    3.363957
     14          6           0        1.008630    1.246127   -3.356502
     15          6           0        1.636404    2.458827   -3.080995
     16          6           0        1.839592    2.887990   -1.755636
     17          6           0        1.385044    2.084144   -0.693332
     18          6           0       -1.119882   -2.326876   -0.611232
     19          6           0       -1.607727   -3.156802   -1.640349
     20          6           0       -1.309092   -2.829449   -2.980328
     21          6           0       -0.601932   -1.672411   -3.299808
     22          6           0        1.593040   -1.058114    3.342285
     23          6           0        2.827670   -1.625759    3.039386
     24          6           0        3.298891   -1.688548    1.711153
     25          6           0        2.469971   -1.222032    0.670768
     26          7           0       -4.144836    2.100248    1.473347
     27          7           0        2.500651    4.119807   -1.498637
     28          7           0       -2.380896   -4.301834   -1.333645
     29          7           0        4.595814   -2.195083    1.447928
     30          6           0        5.637537   -1.996591    2.405529
     31          6           0       -2.182598   -4.974696   -0.091177
     32          6           0        4.935919   -2.791661    0.201383
     33          6           0       -3.437693   -4.746147   -2.175633
     34          6           0       -4.214397    3.091270    0.457740
     35          6           0       -5.312866    1.737554    2.198551
     36          6           0        3.638825    4.486481   -2.270935
     37          6           0        2.065927    4.962159   -0.441437
     38          6           0        3.777528    5.803528   -2.746710
     39          6           0        4.894065    6.144962   -3.499424
     40          6           0        5.881002    5.204530   -3.813338
     41          6           0        5.734616    3.893991   -3.344325
     42          6           0        4.623692    3.541091   -2.567504
     43          6           0       -5.322281    3.150200   -0.392883
     44          6           0       -5.406129    4.133821   -1.385696
     45          6           0       -4.369294    5.057970   -1.555248
     46          6           0       -3.258512    4.979990   -0.708744
     47          6           0       -3.170289    4.021763    0.294059
     48          6           0       -6.185591    2.724531    2.664802
     49          6           0       -7.344237    2.374233    3.368523
     50          6           0       -7.630168    1.030002    3.634780
     51          6           0       -6.742674    0.051914    3.174092
     52          6           0       -5.599872    0.383984    2.456864
     53          6           0        3.000753    5.624819    0.359674
     54          6           0        2.580462    6.474390    1.390408
     55          6           0        1.217085    6.653264    1.648607
     56          6           0        0.290762    5.973454    0.850504
     57          6           0        0.691899    5.143266   -0.188979
     58          6           0       -0.986822   -5.644473    0.171486
     59          6           0       -0.775115   -6.303404    1.383742
     60          6           0       -1.784522   -6.305161    2.343205
     61          6           0       -2.991895   -5.643100    2.104354
     62          6           0       -3.195836   -4.964277    0.897865
     63          6           0       -4.261938   -3.816913   -2.835578
     64          6           0       -5.299718   -4.264628   -3.654087
     65          6           0       -5.542871   -5.638853   -3.806090
     66          6           0       -4.734071   -6.546543   -3.134183
     67          6           0       -3.677962   -6.116561   -2.326922
     68          6           0        4.057868   -3.702058   -0.415462
     69          6           0        4.406919   -4.285122   -1.636916
     70          6           0        5.640780   -3.993763   -2.237408
     71          6           0        6.504170   -3.102447   -1.612982
     72          6           0        6.161332   -2.489251   -0.406927
     73          6           0        5.875395   -0.734089    2.958403
     74          6           0        6.902661   -0.577501    3.892322
     75          6           0        7.703498   -1.650401    4.266223
     76          6           0        7.470090   -2.914168    3.702585
     77          6           0        6.433475   -3.091235    2.782922
     78          1           0        2.812475   -1.259209   -0.357661
     79          1           0       -1.332420   -2.566010    0.425461
     80          1           0       -1.655019   -3.483734   -3.773262
     81          1           0       -0.403356   -1.437711   -4.342704
     82          1           0        0.867916    0.936389   -4.388969
     83          1           0        1.981165    3.086395   -3.896254
     84          1           0        1.270213   -1.000671    4.378860
     85          1           0        3.452607   -2.006734    3.839525
     86          1           0       -1.092135    0.286441    4.398500
     87          1           0       -3.196153    1.478264    3.881952
     88          1           0        1.544649    2.401276    0.332219
     89          1           0       -2.348825    1.249678   -0.333434
     90          1           0        5.887000   -4.465680   -3.182822
     91          1           0       -6.358440   -5.959856   -4.445685
     92          1           0        6.735534    5.498007   -4.411288
     93          1           0       -4.412392    5.823408   -2.320773
     94          8           0        6.627095    2.884698   -3.573773
     95          1           0        4.544352    2.522135   -2.205499
     96          1           0       -6.135925    2.440327   -0.297587
     97          8           0       -6.539517    4.091826   -2.149577
     98          1           0        4.998233    7.162392   -3.867408
     99          1           0        3.012718    6.539244   -2.523329
    100          1           0       -2.452050    5.698291   -0.832015
    101          1           0       -2.306057    3.984134    0.948015
    102          1           0        6.833484   -1.778296    0.060012
    103          1           0        7.455678   -2.862531   -2.080161
    104          8           0        3.620076   -5.170547   -2.317117
    105          1           0        3.117296   -3.935077    0.067414
    106          8           0       -6.147892   -3.436835   -4.335565
    107          1           0       -4.084823   -2.760341   -2.684239
    108          1           0       -4.915529   -7.611974   -3.250261
    109          1           0       -3.042670   -6.835308   -1.820738
    110          8           0       -4.320324   -4.263800    0.589950
    111          1           0        0.163032   -6.818441    1.568104
    112          1           0       -0.223196   -5.641875   -0.599912
    113          1           0        5.263844    0.109919    2.658311
    114          1           0        7.089284    0.403456    4.321117
    115          8           0        8.299329   -3.913265    4.126925
    116          1           0        6.226817   -4.059270    2.343937
    117          8           0        3.587759    7.069935    2.097652
    118          1           0        4.064598    5.494416    0.197678
    119          1           0       -0.770127    6.112473    1.042797
    120          1           0       -0.042411    4.634380   -0.803554
    121          1           0       -4.930316   -0.386580    2.090626
    122          1           0       -6.963777   -0.994294    3.370323
    123          8           0       -8.121547    3.425397    3.767335
    124          1           0       -5.983317    3.774500    2.485830
    125          1           0       -1.640463   -6.819785    3.289272
    126          1           0       -8.518593    0.739174    4.182429
    127          1           0        0.871636    7.300343    2.445827
    128          1           0        8.511200   -1.538837    4.982228
    129          6           0       -5.950807   -2.036052   -4.228729
    130          1           0       -4.955615   -1.738758   -4.584870
    131          1           0       -6.079938   -1.685857   -3.196062
    132          1           0       -6.713015   -1.577555   -4.861782
    133          1           0       -3.761469   -5.644795    2.867839
    134          6           0       -5.388865   -4.252389    1.522533
    135          1           0       -5.766792   -5.264957    1.714899
    136          1           0       -6.176938   -3.654131    1.062214
    137          1           0       -5.089440   -3.791458    2.473420
    138          6           0        2.316899   -5.431269   -1.823144
    139          6           0        8.126374   -5.209864    3.577786
    140          1           0        8.895107   -5.833982    4.037436
    141          1           0        8.262209   -5.209248    2.488292
    142          1           0        7.136404   -5.621499    3.815744
    143          1           0        1.856548   -6.113848   -2.540355
    144          1           0        1.718791   -4.513122   -1.758885
    145          1           0        2.347508   -5.913009   -0.835949
    146          6           0        7.796179    3.180869   -4.318591
    147          1           0        8.363127    2.249275   -4.368633
    148          1           0        8.405972    3.950259   -3.826203
    149          1           0        7.555039    3.512191   -5.337627
    150          6           0        3.236137    7.914798    3.180097
    151          1           0        4.178749    8.267097    3.603584
    152          1           0        2.672869    7.372367    3.951249
    153          1           0        2.645357    8.778057    2.845251
    154          6           0       -6.678627    5.042720   -3.191677
    155          6           0       -9.298418    3.146212    4.506628
    156          1           0       -9.753607    4.114891    4.721771
    157          1           0       -9.071908    2.634833    5.451908
    158          1           0      -10.004741    2.535403    3.928485
    159          1           0       -7.636076    4.825801   -3.669407
    160          1           0       -5.874330    4.951231   -3.933927
    161          1           0       -6.693064    6.069984   -2.803535
 ---------------------------------------------------------------------

 The electronic state is 1-A.
 Alpha  occ. eigenvalues --  -19.17985 -19.17437 -19.17378 -19.17250 -19.17108
 Alpha  occ. eigenvalues --  -19.17084 -19.16984 -19.16831 -14.35836 -14.35772
 Alpha  occ. eigenvalues --  -14.35586 -14.35585 -10.25003 -10.24434 -10.24358
 Alpha  occ. eigenvalues --  -10.24209 -10.24201 -10.24115 -10.24041 -10.24006
 Alpha  occ. eigenvalues --  -10.23933 -10.23761 -10.23754 -10.23733 -10.23611
 Alpha  occ. eigenvalues --  -10.23605 -10.23295 -10.23216 -10.22518 -10.22407
 Alpha  occ. eigenvalues --  -10.22380 -10.22358 -10.22354 -10.22345 -10.22252
 Alpha  occ. eigenvalues --  -10.22200 -10.22185 -10.22145 -10.22091 -10.22008
 Alpha  occ. eigenvalues --  -10.20549 -10.19244 -10.19084 -10.19009 -10.18945
 Alpha  occ. eigenvalues --  -10.18650 -10.18631 -10.18618 -10.18616 -10.18608
 Alpha  occ. eigenvalues --  -10.18579 -10.18555 -10.18497 -10.18491 -10.18345
 Alpha  occ. eigenvalues --  -10.18314 -10.18280 -10.18256 -10.18245 -10.18189
 Alpha  occ. eigenvalues --  -10.18175 -10.18134 -10.18120 -10.18115 -10.18062
 Alpha  occ. eigenvalues --  -10.17987 -10.17979 -10.17938 -10.17878 -10.17876
 Alpha  occ. eigenvalues --  -10.17853 -10.17852 -10.17821 -10.17787 -10.17773
 Alpha  occ. eigenvalues --  -10.17771 -10.17763 -10.17740 -10.17714 -10.17699
 Alpha  occ. eigenvalues --  -10.17692 -10.17666 -10.17492 -10.17480 -10.17439
 Alpha  occ. eigenvalues --  -10.17416 -10.17367 -10.17340 -10.17292 -10.17260
 Alpha  occ. eigenvalues --  -10.17229 -10.17073 -10.17040  -1.06774  -1.06029
 Alpha  occ. eigenvalues --   -1.05944  -1.05828  -1.05709  -1.05669  -1.05575
 Alpha  occ. eigenvalues --   -1.05371  -0.95668  -0.95625  -0.95469  -0.95398
 Alpha  occ. eigenvalues --   -0.89083  -0.86159  -0.84984  -0.84695  -0.84559
 Alpha  occ. eigenvalues --   -0.84443  -0.84207  -0.84050  -0.83414  -0.83161
 Alpha  occ. eigenvalues --   -0.82158  -0.82092  -0.79597  -0.77531  -0.76248
 Alpha  occ. eigenvalues --   -0.75728  -0.75647  -0.75455  -0.75257  -0.75191
 Alpha  occ. eigenvalues --   -0.75125  -0.75009  -0.74693  -0.74551  -0.74354
 Alpha  occ. eigenvalues --   -0.74271  -0.74129  -0.73684  -0.73488  -0.73377
 Alpha  occ. eigenvalues --   -0.73244  -0.72849  -0.71666  -0.71602  -0.69748
 Alpha  occ. eigenvalues --   -0.69560  -0.69229  -0.69220  -0.69114  -0.69023
 Alpha  occ. eigenvalues --   -0.68945  -0.68832  -0.67739  -0.67695  -0.67535
 Alpha  occ. eigenvalues --   -0.63792  -0.63224  -0.62304  -0.62103  -0.61807
 Alpha  occ. eigenvalues --   -0.61577  -0.60961  -0.60358  -0.60183  -0.59752
 Alpha  occ. eigenvalues --   -0.59546  -0.59124  -0.59100  -0.58840  -0.58675
 Alpha  occ. eigenvalues --   -0.58340  -0.58269  -0.57758  -0.57574  -0.57340
 Alpha  occ. eigenvalues --   -0.56339  -0.55898  -0.55813  -0.55171  -0.53879
 Alpha  occ. eigenvalues --   -0.53810  -0.53595  -0.53433  -0.52955  -0.52639
 Alpha  occ. eigenvalues --   -0.52497  -0.51548  -0.50887  -0.50163  -0.49674
 Alpha  occ. eigenvalues --   -0.49439  -0.48866  -0.48678  -0.48605  -0.48502
 Alpha  occ. eigenvalues --   -0.48392  -0.48288  -0.48139  -0.48054  -0.47944
 Alpha  occ. eigenvalues --   -0.47873  -0.47731  -0.47670  -0.47632  -0.47390
 Alpha  occ. eigenvalues --   -0.47373  -0.47215  -0.46942  -0.46742  -0.46570
 Alpha  occ. eigenvalues --   -0.46430  -0.46407  -0.46377  -0.46246  -0.46237
 Alpha  occ. eigenvalues --   -0.46157  -0.46021  -0.46003  -0.45883  -0.45762
 Alpha  occ. eigenvalues --   -0.45279  -0.44953  -0.44833  -0.43960  -0.43583
 Alpha  occ. eigenvalues --   -0.43373  -0.43263  -0.43113  -0.42885  -0.42764
 Alpha  occ. eigenvalues --   -0.42727  -0.42409  -0.42300  -0.42227  -0.42205
 Alpha  occ. eigenvalues --   -0.42101  -0.41939  -0.41747  -0.41512  -0.41452
 Alpha  occ. eigenvalues --   -0.41345  -0.41175  -0.40952  -0.40727  -0.40597
 Alpha  occ. eigenvalues --   -0.40487  -0.40233  -0.39517  -0.38990  -0.38923
 Alpha  occ. eigenvalues --   -0.38044  -0.37718  -0.37710  -0.37573  -0.37415
 Alpha  occ. eigenvalues --   -0.37352  -0.37306  -0.37295  -0.37234  -0.37127
 Alpha  occ. eigenvalues --   -0.37025  -0.36961  -0.36712  -0.36700  -0.36543
 Alpha  occ. eigenvalues --   -0.36481  -0.36428  -0.36339  -0.36216  -0.36150
 Alpha  occ. eigenvalues --   -0.36035  -0.35926  -0.35826  -0.35729  -0.35545
 Alpha  occ. eigenvalues --   -0.35442  -0.35150  -0.34911  -0.34786  -0.34602
 Alpha  occ. eigenvalues --   -0.33728  -0.33350  -0.33121  -0.32934  -0.32785
 Alpha  occ. eigenvalues --   -0.32576  -0.32558  -0.32513  -0.32410  -0.32284
 Alpha  occ. eigenvalues --   -0.32207  -0.32177  -0.32106  -0.32042  -0.31934
 Alpha  occ. eigenvalues --   -0.31569  -0.31545  -0.31456  -0.31395  -0.31254
 Alpha  occ. eigenvalues --   -0.30043  -0.29705  -0.28604  -0.28285  -0.26351
 Alpha  occ. eigenvalues --   -0.26259  -0.25638  -0.25350  -0.25205  -0.24906
 Alpha  occ. eigenvalues --   -0.24818  -0.23910  -0.23671  -0.23546  -0.23304
 Alpha  occ. eigenvalues --   -0.22422  -0.22232  -0.21883  -0.21666  -0.21593
 Alpha  occ. eigenvalues --   -0.21418  -0.21098  -0.21030  -0.20889  -0.18467
 Alpha  occ. eigenvalues --   -0.18422  -0.16451  -0.16286
 Alpha virt. eigenvalues --   -0.02589  -0.02386  -0.01143  -0.01040  -0.00758
 Alpha virt. eigenvalues --   -0.00555  -0.00402  -0.00199   0.00106   0.00573
 Alpha virt. eigenvalues --    0.01097   0.01205   0.01452   0.01634   0.01941

 Mulliken atomic charges:
              1
     1  C   -0.271399
     2  C    0.126083
     3  C    0.072222
     4  C    0.074304
     5  C    0.117119
     6  C    0.119624
     7  C    0.074958
     8  C    0.072253
     9  C    0.125547
    10  C   -0.239465
    11  C    0.286692
    12  C   -0.176799
    13  C   -0.205755
    14  C   -0.204337
    15  C   -0.174402
    16  C    0.291985
    17  C   -0.241803
    18  C   -0.255606
    19  C    0.320222
    20  C   -0.191011
    21  C   -0.205612
    22  C   -0.202401
    23  C   -0.186910
    24  C    0.315785
    25  C   -0.258798
    26  N   -0.665280
    27  N   -0.665759
    28  N   -0.658616
    29  N   -0.666434
    30  C    0.249552
    31  C    0.186571
    32  C    0.290350
    33  C    0.315791
    34  C    0.293585
    35  C    0.281674
    36  C    0.276617
    37  C    0.293671
    38  C   -0.160023
    39  C   -0.146584
    40  C   -0.198378
    41  C    0.377059
    42  C   -0.222973
    43  C   -0.226927
    44  C    0.378923
    45  C   -0.199822
    46  C   -0.154255
    47  C   -0.175176
    48  C   -0.220542
    49  C    0.377957
    50  C   -0.198384
    51  C   -0.147520
    52  C   -0.167739
    53  C   -0.229229
    54  C    0.378712
    55  C   -0.200487
    56  C   -0.155085
    57  C   -0.175772
    58  C   -0.155067
    59  C   -0.151224
    60  C   -0.128770
    61  C   -0.208889
    62  C    0.376561
    63  C   -0.244189
    64  C    0.373905
    65  C   -0.174471
    66  C   -0.141457
    67  C   -0.184950
    68  C   -0.249744
    69  C    0.378260
    70  C   -0.173204
    71  C   -0.141974
    72  C   -0.176242
    73  C   -0.162119
    74  C   -0.144939
    75  C   -0.170236
    76  C    0.376205
    77  C   -0.229795
    78  H    0.156704
    79  H    0.149251
    80  H    0.142553
    81  H    0.128685
    82  H    0.128283
    83  H    0.140995
    84  H    0.127294
    85  H    0.142192
    86  H    0.127926
    87  H    0.140820
    88  H    0.152490
    89  H    0.151452
    90  H    0.132625
    91  H    0.130156
    92  H    0.127119
    93  H    0.127931
    94  O   -0.507690
    95  H    0.153744
    96  H    0.148215
    97  O   -0.510479
    98  H    0.129270
    99  H    0.138395
   100  H    0.136501
   101  H    0.146597
   102  H    0.141779
   103  H    0.129271
   104  O   -0.515414
   105  H    0.148441
   106  O   -0.512694
   107  H    0.149619
   108  H    0.126406
   109  H    0.131702
   110  O   -0.501353
   111  H    0.127305
   112  H    0.146045
   113  H    0.144281
   114  H    0.133099
   115  O   -0.510761
   116  H    0.143568
   117  O   -0.509681
   118  H    0.151486
   119  H    0.135161
   120  H    0.146161
   121  H    0.142750
   122  H    0.122984
   123  O   -0.508736
   124  H    0.150339
   125  H    0.130803
   126  H    0.126839
   127  H    0.127202
   128  H    0.134836
   129  C   -0.214827
   130  H    0.153949
   131  H    0.155280
   132  H    0.165924
   133  H    0.134790
   134  C   -0.218565
   135  H    0.154938
   136  H    0.176630
   137  H    0.152139
   138  C   -0.221476
   139  C   -0.215506
   140  H    0.168139
   141  H    0.157277
   142  H    0.151637
   143  H    0.169081
   144  H    0.170371
   145  H    0.146247
   146  C   -0.212981
   147  H    0.168800
   148  H    0.150811
   149  H    0.149880
   150  C   -0.212862
   151  H    0.167578
   152  H    0.151555
   153  H    0.149761
   154  C   -0.213241
   155  C   -0.213173
   156  H    0.168819
   157  H    0.150237
   158  H    0.150971
   159  H    0.167290
   160  H    0.151237
   161  H    0.151190
 Sum of Mulliken atomic charges =   0.00000

 Dipole moment (field-independent basis, Debye):
    X=             -2.0361    Y=              1.2587    Z=              1.9091  Tot=              3.0618
 Quadrupole moment (field-independent basis, Debye-Ang):
   XX=           -481.5119   YY=           -487.5496   ZZ=           -498.0584
   XY=             -3.4878   XZ=            -24.6997   YZ=            -20.6137

 Normal termination of Gaussian 09 at Tue Jan 20 03:25:05 2015.
