 Gaussian 09, Revision A.02,
 Gaussian 09:  EM64L-G09RevA.02 11-Jun-2009

 -------------------
 #p opt b3lyp/6-31g*
 -------------------

 ----------
 Auto Spiro
 ----------
 Symbolic Z-matrix:
 Charge =  0 Multiplicity = 1

 SCF Done:  E(RB3LYP) =  -4406.36362595     A.U. after   15 cycles
 SCF Done:  E(RB3LYP) =  -4406.36512698     A.U. after   16 cycles
 SCF Done:  E(RB3LYP) =  -4406.36454823     A.U. after   16 cycles
 SCF Done:  E(RB3LYP) =  -4406.36555149     A.U. after   12 cycles
 SCF Done:  E(RB3LYP) =  -4406.36578355     A.U. after   15 cycles
 SCF Done:  E(RB3LYP) =  -4406.36595820     A.U. after   13 cycles
 SCF Done:  E(RB3LYP) =  -4406.36605830     A.U. after   12 cycles
 SCF Done:  E(RB3LYP) =  -4406.36610119     A.U. after   11 cycles
 SCF Done:  E(RB3LYP) =  -4406.36613061     A.U. after   10 cycles
 SCF Done:  E(RB3LYP) =  -4406.36613584     A.U. after   10 cycles
 SCF Done:  E(RB3LYP) =  -4406.36613715     A.U. after   10 cycles
 SCF Done:  E(RB3LYP) =  -4406.36614022     A.U. after   10 cycles
 SCF Done:  E(RB3LYP) =  -4406.36614151     A.U. after    7 cycles
 SCF Done:  E(RB3LYP) =  -4406.36614041     A.U. after    8 cycles
 SCF Done:  E(RB3LYP) =  -4406.36614267     A.U. after    8 cycles
 SCF Done:  E(RB3LYP) =  -4406.36614237     A.U. after    6 cycles
 SCF Done:  E(RB3LYP) =  -4406.36614207     A.U. after    6 cycles
 SCF Done:  E(RB3LYP) =  -4406.36614149     A.U. after    7 cycles
 SCF Done:  E(RB3LYP) =  -4406.36614122     A.U. after    6 cycles
 SCF Done:  E(RB3LYP) =  -4406.36614113     A.U. after    5 cycles
 Optimization completed.
    -- Stationary point found.

                         Standard orientation:
 ---------------------------------------------------------------------
 Center     Atomic      Atomic             Coordinates (Angstroms)
 Number     Number       Type             X           Y           Z
 ---------------------------------------------------------------------
      1          6           0        0.018671   -0.040829    0.127087
      2          6           0        0.567933   -1.095786    1.095021
      3          6           0        0.381753   -0.686472    2.430244
      4          6           0       -0.283059    0.617860    2.435947
      5          6           0       -0.505540    1.019291    1.103837
      6          6           0        1.057614    0.506655   -0.859427
      7          6           0        0.631934    0.305198   -2.186787
      8          6           0       -0.671467   -0.360807   -2.169140
      9          6           0       -1.049998   -0.583014   -0.830734
     10          6           0        2.267295    1.118325   -0.571558
     11          6           0        3.083668    1.564717   -1.629862
     12          6           0        2.656915    1.360832   -2.957910
     13          6           0        1.446865    0.731122   -3.238215
     14          6           0       -0.692107    1.451741    3.478945
     15          6           0       -1.305880    2.669103    3.188501
     16          6           0       -1.536547    3.066395    1.857722
     17          6           0       -1.126049    2.221344    0.807172
     18          6           0        1.177516   -2.300436    0.787225
     19          6           0        1.609817   -3.143935    1.830767
     20          6           0        1.418262   -2.735771    3.166174
     21          6           0        0.817698   -1.515163    3.466405
     22          6           0       -1.521897   -0.770423   -3.199212
     23          6           0       -2.723140   -1.401755   -2.887536
     24          6           0       -3.104331   -1.623339   -1.549341
     25          6           0       -2.250132   -1.198891   -0.511890
     26          7           0        4.321891    2.209053   -1.379210
     27          7           0       -2.165596    4.305122    1.559073
     28          7           0        2.208054   -4.390875    1.528574
     29          7           0       -4.341305   -2.253435   -1.265127
     30          6           0       -5.488106   -1.905679   -2.033945
     31          6           0        1.683569   -5.169813    0.457672
     32          6           0       -4.491068   -3.124264   -0.152919
     33          6           0        3.205732   -4.955549    2.369252
     34          6           0        4.520020    2.986779   -0.202098
     35          6           0        5.442413    1.912856   -2.207910
     36          6           0       -3.146707    4.852298    2.433772
     37          6           0       -1.618145    5.123731    0.529440
     38          6           0       -3.139730    6.207472    2.777589
     39          6           0       -4.123009    6.748435    3.609961
     40          6           0       -5.125177    5.926897    4.133534
     41          6           0       -5.133979    4.564079    3.802461
     42          6           0       -4.167601    4.037776    2.957851
     43          6           0        5.695531    2.877598    0.546052
     44          6           0        5.910354    3.669486    1.676962
     45          6           0        4.930084    4.575221    2.091680
     46          6           0        3.741672    4.681211    1.354299
     47          6           0        3.543580    3.907555    0.219891
     48          6           0        6.224920    2.934564   -2.779616
     49          6           0        7.355891    2.627222   -3.544899
     50          6           0        7.707589    1.295810   -3.780681
     51          6           0        6.919404    0.268377   -3.241794
     52          6           0        5.816492    0.581756   -2.461037
     53          6           0       -2.433144    5.704659   -0.460782
     54          6           0       -1.886348    6.549529   -1.433635
     55          6           0       -0.513145    6.805132   -1.455446
     56          6           0        0.314549    6.210550   -0.491621
     57          6           0       -0.239685    5.395524    0.484932
     58          6           0        0.329523   -5.494231    0.401222
     59          6           0       -0.217245   -6.239075   -0.648042
     60          6           0        0.629316   -6.694840   -1.660888
     61          6           0        1.999543   -6.392780   -1.625354
     62          6           0        2.526702   -5.625146   -0.589170
     63          6           0        4.245921   -4.169895    2.880133
     64          6           0        5.230088   -4.719861    3.702669
     65          6           0        5.204607   -6.085563    4.007752
     66          6           0        4.176721   -6.882153    3.487532
     67          6           0        3.186892   -6.323421    2.689034
     68          6           0       -3.485452   -4.052088    0.177395
     69          6           0       -3.642128   -4.914292    1.252385
     70          6           0       -4.816642   -4.895855    2.019705
     71          6           0       -5.826913   -3.987732    1.693911
     72          6           0       -5.654154   -3.105507    0.623182
     73          6           0       -5.915363   -0.582852   -2.128355
     74          6           0       -7.026660   -0.208561   -2.889871
     75          6           0       -7.747549   -1.199535   -3.558642
     76          6           0       -7.345353   -2.542143   -3.477248
     77          6           0       -6.219784   -2.897935   -2.737853
     78          1           0       -2.537358   -1.353474    0.523281
     79          1           0        1.324077   -2.602741   -0.244759
     80          1           0        1.738455   -3.390455    3.969618
     81          1           0        0.676473   -1.228759    4.505758
     82          1           0       -0.522103    1.171259    4.515483
     83          1           0       -1.609291    3.325948    3.996762
     84          1           0       -1.250034   -0.616355   -4.240674
     85          1           0       -3.381286   -1.736944   -3.682654
     86          1           0        1.142756    0.588888   -4.272362
     87          1           0        3.288624    1.700260   -3.772436
     88          1           0       -1.294590    2.519649   -0.223128
     89          1           0        2.588815    1.253783    0.455766
     90          8           0       -4.872482   -5.799036    3.048070
     91          6           0       -6.026922   -5.799055    3.868008
     92          8           0        6.124025   -6.730398    4.793175
     93          6           0        7.185344   -5.966664    5.336464
     94          8           0       -6.129882    6.346108    4.964510
     95          8           0        5.029078    5.394254    3.183977
     96          6           0        6.209939    5.323756    3.962825
     97          6           0       -6.161399    7.713972    5.330206
     98          1           0       -5.920294    3.935737    4.209628
     99          1           0       -4.193828    2.982834    2.703143
    100          1           0        6.460673    2.172097    0.238474
    101          1           0       -4.085186    7.805790    3.846647
    102          1           0       -2.361854    6.854554    2.385404
    103          1           0        2.990272    5.392829    1.683565
    104          1           0        2.621600    4.008839   -0.344143
    105          1           0       -6.441301   -2.396137    0.387943
    106          1           0       -6.745563   -3.942129    2.268220
    107          1           0       -2.866965   -5.629276    1.512530
    108          1           0       -2.577079   -4.091712   -0.415125
    109          1           0        6.016698   -4.076848    4.081484
    110          1           0        4.287871   -3.114409    2.631058
    111          1           0        4.163370   -7.939603    3.733732
    112          1           0        2.389128   -6.950507    2.303639
    113          1           0        6.816400   -5.168330    5.995249
    114          1           0        7.809082   -5.519646    4.550036
    115          1           0        7.789781   -6.663401    5.920978
    116          1           0        7.100057    5.586786    3.374876
    117          1           0        6.350927    4.324294    4.396818
    118          1           0        6.083427    6.050215    4.768099
    119          1           0       -7.027987    7.831173    5.984111
    120          1           0       -6.279171    8.366042    4.453800
    121          1           0       -5.254760    8.009608    5.875887
    122          1           0       -6.933602   -6.034788    3.293521
    123          1           0       -6.165880   -4.833252    4.372922
    124          1           0       -5.864679   -6.576338    4.617529
    125          1           0        2.617266   -6.755235   -2.437551
    126          8           0        3.834778   -5.263337   -0.501132
    127          1           0       -1.277682   -6.460596   -0.650771
    128          1           0       -0.316433   -5.139468    1.198977
    129          1           0       -5.352095    0.175653   -1.592831
    130          1           0       -7.317096    0.833931   -2.936780
    131          1           0       -7.925737   -3.276034   -4.022400
    132          8           0       -5.747724   -4.170117   -2.638291
    133          1           0       -2.567338    6.978117   -2.158791
    134          8           0       -3.797370    5.532396   -0.481557
    135          1           0        1.379509    6.418644   -0.513086
    136          1           0        0.398572    4.949879    1.242175
    137          1           0        5.219937   -0.214010   -2.025186
    138          1           0        7.202182   -0.762513   -3.428600
    139          1           0        7.926175    3.457255   -3.943845
    140          8           0        5.963551    4.266504   -2.560628
    141          8           0        0.230172   -7.440141   -2.734226
    142          6           0       -1.147073   -7.760690   -2.846208
    143          8           0        8.785564    0.898920   -4.520513
    144          6           0        9.616434    1.901896   -5.080811
    145          8           0        0.111167    7.606364   -2.369160
    146          6           0       -0.685280    8.237791   -3.357816
    147          8           0       -8.857882   -0.975807   -4.323503
    148          6           0       -9.321814    0.358345   -4.450077
    149          1           0       -1.245795   -8.337891   -3.767683
    150          1           0       -1.767330   -6.857298   -2.914269
    151          1           0       -1.490766   -8.369253   -1.999155
    152          1           0      -10.201994    0.309851   -5.094027
    153          1           0       -8.567025    1.006126   -4.915514
    154          1           0       -9.606965    0.780976   -3.477472
    155          1           0        0.002861    8.829026   -3.965055
    156          1           0       -1.435575    8.902123   -2.908616
    157          1           0       -1.193743    7.503730   -3.997228
    158          1           0       10.409047    1.372380   -5.612958
    159          1           0       10.062379    2.537658   -4.304324
    160          1           0        9.064968    2.534929   -5.788942
    161          6           0       -6.463969   -5.208745   -3.285791
    162          6           0       -4.248610    4.221527   -0.826962
    163          1           0        6.838817    3.559754    2.225886
    164          6           0        4.788037    4.777477   -3.192016
    165          6           0        4.734458   -5.730092   -1.493255
    166          1           0        5.714487   -5.342006   -1.210393
    167          1           0        4.467313   -5.354201   -2.489754
    168          1           0        4.770771   -6.826910   -1.519214
    169          1           0       -5.923899   -6.129137   -3.056824
    170          1           0       -6.490852   -5.062976   -4.373877
    171          1           0       -7.491365   -5.286473   -2.907155
    172          1           0       -5.339942    4.263513   -0.805384
    173          1           0       -3.899104    3.469656   -0.112248
    174          1           0       -3.912531    3.948363   -1.836472
    175          1           0        4.866285    4.692478   -4.284623
    176          1           0        4.728907    5.831601   -2.912867
    177          1           0        3.885057    4.260764   -2.851560
 ---------------------------------------------------------------------

 The electronic state is 1-A.
 Alpha  occ. eigenvalues --  -19.17749 -19.17726 -19.17439 -19.17414 -19.17184
 Alpha  occ. eigenvalues --  -19.17173 -19.16742 -19.16695 -19.16673 -19.16539
 Alpha  occ. eigenvalues --  -19.15544 -19.15479 -14.35126 -14.35078 -14.34837
 Alpha  occ. eigenvalues --  -14.34571 -10.24787 -10.24677 -10.24272 -10.24263
 Alpha  occ. eigenvalues --  -10.24244 -10.24126 -10.24109 -10.24018 -10.23846
 Alpha  occ. eigenvalues --  -10.23831 -10.23674 -10.23672 -10.23533 -10.23415
 Alpha  occ. eigenvalues --  -10.23378 -10.23349 -10.23320 -10.23291 -10.23287
 Alpha  occ. eigenvalues --  -10.23249 -10.23246 -10.23073 -10.22405 -10.22317
 Alpha  occ. eigenvalues --  -10.21738 -10.21616 -10.21574 -10.21374 -10.21308
 Alpha  occ. eigenvalues --  -10.21302 -10.21285 -10.21161 -10.21082 -10.21062
 Alpha  occ. eigenvalues --  -10.20814 -10.20786 -10.20003 -10.18811 -10.18498
 Alpha  occ. eigenvalues --  -10.18482 -10.18269 -10.18149 -10.18137 -10.18092
 Alpha  occ. eigenvalues --  -10.18064 -10.18050 -10.18033 -10.18021 -10.17863
 Alpha  occ. eigenvalues --  -10.17848 -10.17848 -10.17826 -10.17821 -10.17803
 Alpha  occ. eigenvalues --  -10.17803 -10.17790 -10.17765 -10.17724 -10.17715
 Alpha  occ. eigenvalues --  -10.17702 -10.17676 -10.17654 -10.17641 -10.17611
 Alpha  occ. eigenvalues --  -10.17602 -10.17568 -10.17545 -10.17542 -10.17538
 Alpha  occ. eigenvalues --  -10.17516 -10.17510 -10.17505 -10.17502 -10.17490
 Alpha  occ. eigenvalues --  -10.17449 -10.17402 -10.17383 -10.17355 -10.17350
 Alpha  occ. eigenvalues --  -10.17274 -10.17250 -10.17232 -10.17217 -10.17067
 Alpha  occ. eigenvalues --  -10.16943  -1.06546  -1.06259  -1.06001  -1.05994
 Alpha  occ. eigenvalues --   -1.05975  -1.05705  -1.05269  -1.05222  -1.05214
 Alpha  occ. eigenvalues --   -1.05055  -1.04216  -1.04171  -0.94786  -0.94757
 Alpha  occ. eigenvalues --   -0.94718  -0.94421  -0.88458  -0.85560  -0.84584
 Alpha  occ. eigenvalues --   -0.84347  -0.84329  -0.84145  -0.83742  -0.83631
 Alpha  occ. eigenvalues --   -0.83127  -0.82869  -0.81781  -0.81629  -0.79025
 Alpha  occ. eigenvalues --   -0.77006  -0.76006  -0.75615  -0.75448  -0.75323
 Alpha  occ. eigenvalues --   -0.75280  -0.75131  -0.74783  -0.74749  -0.74581
 Alpha  occ. eigenvalues --   -0.74256  -0.74072  -0.73858  -0.73657  -0.73307
 Alpha  occ. eigenvalues --   -0.73239  -0.73186  -0.72881  -0.72633  -0.72592
 Alpha  occ. eigenvalues --   -0.72320  -0.70449  -0.70212  -0.70052  -0.69555
 Alpha  occ. eigenvalues --   -0.69485  -0.69422  -0.69343  -0.69167  -0.68445
 Alpha  occ. eigenvalues --   -0.68372  -0.67328  -0.67081  -0.66822  -0.65869
 Alpha  occ. eigenvalues --   -0.65775  -0.62807  -0.62275  -0.61484  -0.60996
 Alpha  occ. eigenvalues --   -0.60715  -0.60443  -0.60397  -0.60206  -0.59931
 Alpha  occ. eigenvalues --   -0.59790  -0.59378  -0.59287  -0.59163  -0.58777
 Alpha  occ. eigenvalues --   -0.58617  -0.57933  -0.57814  -0.57316  -0.57214
 Alpha  occ. eigenvalues --   -0.56818  -0.55866  -0.55536  -0.55382  -0.54763
 Alpha  occ. eigenvalues --   -0.53930  -0.53515  -0.53177  -0.53078  -0.52654
 Alpha  occ. eigenvalues --   -0.52487  -0.52479  -0.52327  -0.51524  -0.51213
 Alpha  occ. eigenvalues --   -0.51077  -0.50854  -0.50650  -0.50361  -0.50338
 Alpha  occ. eigenvalues --   -0.49840  -0.49672  -0.49406  -0.49160  -0.49085
 Alpha  occ. eigenvalues --   -0.48557  -0.48337  -0.48078  -0.47785  -0.47596
 Alpha  occ. eigenvalues --   -0.47562  -0.46971  -0.46670  -0.46637  -0.46630
 Alpha  occ. eigenvalues --   -0.46548  -0.46530  -0.46527  -0.46378  -0.45968
 Alpha  occ. eigenvalues --   -0.45952  -0.45916  -0.45870  -0.45843  -0.45795
 Alpha  occ. eigenvalues --   -0.45716  -0.45341  -0.44901  -0.44793  -0.44599
 Alpha  occ. eigenvalues --   -0.44172  -0.44163  -0.44045  -0.43806  -0.43773
 Alpha  occ. eigenvalues --   -0.43724  -0.43554  -0.43311  -0.43022  -0.43002
 Alpha  occ. eigenvalues --   -0.42860  -0.42691  -0.42622  -0.42509  -0.42347
 Alpha  occ. eigenvalues --   -0.42180  -0.42042  -0.41626  -0.41499  -0.41433
 Alpha  occ. eigenvalues --   -0.41366  -0.41295  -0.41167  -0.40972  -0.40947
 Alpha  occ. eigenvalues --   -0.40757  -0.40720  -0.40603  -0.40543  -0.40464
 Alpha  occ. eigenvalues --   -0.40402  -0.40314  -0.39963  -0.39926  -0.39475
 Alpha  occ. eigenvalues --   -0.39105  -0.38443  -0.38315  -0.38128  -0.38121
 Alpha  occ. eigenvalues --   -0.37890  -0.37689  -0.37621  -0.37562  -0.37438
 Alpha  occ. eigenvalues --   -0.37180  -0.37058  -0.36918  -0.36854  -0.36752
 Alpha  occ. eigenvalues --   -0.36656  -0.36559  -0.36499  -0.36394  -0.35899
 Alpha  occ. eigenvalues --   -0.35641  -0.35429  -0.35189  -0.35112  -0.35002
 Alpha  occ. eigenvalues --   -0.34835  -0.34793  -0.34557  -0.34439  -0.34366
 Alpha  occ. eigenvalues --   -0.34254  -0.34118  -0.33742  -0.33535  -0.33240
 Alpha  occ. eigenvalues --   -0.33036  -0.32953  -0.32883  -0.32807  -0.32542
 Alpha  occ. eigenvalues --   -0.32370  -0.32247  -0.31994  -0.31897  -0.31738
 Alpha  occ. eigenvalues --   -0.31661  -0.31599  -0.31593  -0.31525  -0.31230
 Alpha  occ. eigenvalues --   -0.30889  -0.30833  -0.30675  -0.29924  -0.29445
 Alpha  occ. eigenvalues --   -0.29292  -0.28983  -0.27309  -0.27111  -0.26594
 Alpha  occ. eigenvalues --   -0.26398  -0.25013  -0.24534  -0.24379  -0.24051
 Alpha  occ. eigenvalues --   -0.23983  -0.23958  -0.23811  -0.23504  -0.23441
 Alpha  occ. eigenvalues --   -0.23141  -0.23045  -0.22911  -0.22615  -0.22214
 Alpha  occ. eigenvalues --   -0.21533  -0.21447  -0.21409  -0.21098  -0.20930
 Alpha  occ. eigenvalues --   -0.20447  -0.17166  -0.17028  -0.15400  -0.15203
 Alpha virt. eigenvalues --   -0.01776  -0.01627  -0.00751  -0.00549  -0.00119
 Alpha virt. eigenvalues --    0.00192   0.00597   0.00843   0.00880   0.00944
 Alpha virt. eigenvalues --    0.01202   0.01305   0.01421   0.01521   0.01802

 Mulliken atomic charges:
              1
     1  C   -0.272338
     2  C    0.124949
     3  C    0.071983
     4  C    0.074451
     5  C    0.125392
     6  C    0.124842
     7  C    0.071227
     8  C    0.070736
     9  C    0.123957
    10  C   -0.255301
    11  C    0.302590
    12  C   -0.184345
    13  C   -0.204336
    14  C   -0.205099
    15  C   -0.188414
    16  C    0.292728
    17  C   -0.248453
    18  C   -0.245583
    19  C    0.304669
    20  C   -0.188639
    21  C   -0.204997
    22  C   -0.205789
    23  C   -0.177315
    24  C    0.299017
    25  C   -0.252510
    26  N   -0.669410
    27  N   -0.668331
    28  N   -0.653446
    29  N   -0.653868
    30  C    0.196559
    31  C    0.199995
    32  C    0.326078
    33  C    0.319281
    34  C    0.315472
    35  C    0.218016
    36  C    0.314382
    37  C    0.225233
    38  C   -0.180515
    39  C   -0.204200
    40  C    0.376743
    41  C   -0.184132
    42  C   -0.168866
    43  C   -0.177659
    44  C   -0.203561
    45  C    0.379843
    46  C   -0.191681
    47  C   -0.173872
    48  C    0.334371
    49  C   -0.256426
    50  C    0.380939
    51  C   -0.181297
    52  C   -0.176511
    53  C    0.334935
    54  C   -0.255294
    55  C    0.381618
    56  C   -0.189183
    57  C   -0.183047
    58  C   -0.179260
    59  C   -0.221416
    60  C    0.386139
    61  C   -0.271788
    62  C    0.375494
    63  C   -0.167011
    64  C   -0.208391
    65  C    0.375602
    66  C   -0.185130
    67  C   -0.178765
    68  C   -0.170218
    69  C   -0.195622
    70  C    0.377600
    71  C   -0.205722
    72  C   -0.188608
    73  C   -0.172631
    74  C   -0.213572
    75  C    0.385309
    76  C   -0.273241
    77  C    0.374321
    78  H    0.150758
    79  H    0.146494
    80  H    0.139855
    81  H    0.125466
    82  H    0.127413
    83  H    0.141472
    84  H    0.124091
    85  H    0.133888
    86  H    0.124795
    87  H    0.132158
    88  H    0.141729
    89  H    0.153144
    90  O   -0.511725
    91  C   -0.211223
    92  O   -0.512468
    93  C   -0.210898
    94  O   -0.512163
    95  O   -0.511161
    96  C   -0.211914
    97  C   -0.211823
    98  H    0.135044
    99  H    0.141808
   100  H    0.140868
   101  H    0.129071
   102  H    0.141946
   103  H    0.139514
   104  H    0.149616
   105  H    0.137414
   106  H    0.127579
   107  H    0.138277
   108  H    0.150887
   109  H    0.128059
   110  H    0.143847
   111  H    0.133517
   112  H    0.139517
   113  H    0.148159
   114  H    0.147787
   115  H    0.165047
   116  H    0.149347
   117  H    0.149035
   118  H    0.166084
   119  H    0.165533
   120  H    0.149427
   121  H    0.148833
   122  H    0.146263
   123  H    0.150037
   124  H    0.166116
   125  H    0.140429
   126  O   -0.504038
   127  H    0.137792
   128  H    0.151957
   129  H    0.143122
   130  H    0.128709
   131  H    0.140780
   132  O   -0.503759
   133  H    0.135996
   134  O   -0.525055
   135  H    0.142704
   136  H    0.155029
   137  H    0.150756
   138  H    0.135348
   139  H    0.136615
   140  O   -0.524458
   141  O   -0.512747
   142  C   -0.216069
   143  O   -0.511665
   144  C   -0.212842
   145  O   -0.511633
   146  C   -0.212847
   147  O   -0.512221
   148  C   -0.213742
   149  H    0.165562
   150  H    0.158116
   151  H    0.152098
   152  H    0.168497
   153  H    0.152092
   154  H    0.152496
   155  H    0.167816
   156  H    0.152985
   157  H    0.151272
   158  H    0.168123
   159  H    0.153244
   160  H    0.150901
   161  C   -0.213399
   162  C   -0.214149
   163  H    0.128690
   164  C   -0.213829
   165  C   -0.213853
   166  H    0.171827
   167  H    0.152678
   168  H    0.154387
   169  H    0.169919
   170  H    0.151858
   171  H    0.155212
   172  H    0.158204
   173  H    0.168081
   174  H    0.140574
   175  H    0.136063
   176  H    0.163969
   177  H    0.167211
 Sum of Mulliken atomic charges =   0.00000

 Dipole moment (field-independent basis, Debye):
    X=             -1.5140    Y=              1.4067    Z=             -3.0995  Tot=              3.7253
 Quadrupole moment (field-independent basis, Debye-Ang):
   XX=           -492.1100   YY=           -537.5703   ZZ=           -529.1964
   XY=             10.7227   XZ=             10.2792   YZ=              0.8694

 Normal termination of Gaussian 09 at Wed Aug  6 17:04:09 2014.
