 Gaussian 09, Revision A.02,
 Gaussian 09:  EM64L-G09RevA.02 11-Jun-2009

 -------------------
 #p opt b3lyp/6-31g*
 -------------------

 ----------
 Auto Spiro
 ----------
 Symbolic Z-matrix:
 Charge =  0 Multiplicity = 1

 SCF Done:  E(RB3LYP) =  -4864.40464596     A.U. after   15 cycles
 SCF Done:  E(RB3LYP) =  -4864.38104979     A.U. after   16 cycles
 SCF Done:  E(RB3LYP) =  -4864.40509222     A.U. after   16 cycles
 SCF Done:  E(RB3LYP) =  -4864.40637287     A.U. after   16 cycles
 SCF Done:  E(RB3LYP) =  -4864.39992718     A.U. after   16 cycles
 SCF Done:  E(RB3LYP) =  -4864.40667995     A.U. after   13 cycles
 SCF Done:  E(RB3LYP) =  -4864.40674882     A.U. after   16 cycles
 SCF Done:  E(RB3LYP) =  -4864.40669569     A.U. after   12 cycles
 SCF Done:  E(RB3LYP) =  -4864.40703269     A.U. after   10 cycles
 SCF Done:  E(RB3LYP) =  -4864.40646709     A.U. after   16 cycles
 SCF Done:  E(RB3LYP) =  -4864.40731180     A.U. after   17 cycles
 SCF Done:  E(RB3LYP) =  -4864.40732283     A.U. after   16 cycles
 SCF Done:  E(RB3LYP) =  -4864.40733001     A.U. after   10 cycles
 SCF Done:  E(RB3LYP) =  -4864.40733099     A.U. after   11 cycles
 SCF Done:  E(RB3LYP) =  -4864.40733343     A.U. after    7 cycles
 SCF Done:  E(RB3LYP) =  -4864.40733360     A.U. after   23 cycles
 SCF Done:  E(RB3LYP) =  -4864.40733388     A.U. after    6 cycles
 SCF Done:  E(RB3LYP) =  -4864.40733398     A.U. after   24 cycles
 SCF Done:  E(RB3LYP) =  -4864.40733404     A.U. after   24 cycles
 SCF Done:  E(RB3LYP) =  -4864.40733407     A.U. after   23 cycles
 Optimization completed.
    -- Stationary point found.

                         Standard orientation:
 ---------------------------------------------------------------------
 Center     Atomic      Atomic             Coordinates (Angstroms)
 Number     Number       Type             X           Y           Z
 ---------------------------------------------------------------------
      1          6           0       -0.000038    0.000107   -0.000075
      2          6           0        0.860731   -0.827995    0.980131
      3          6           0        0.540416   -0.489927    2.309086
      4          6           0       -0.540040    0.490808    2.309066
      5          6           0       -0.860723    0.828412    0.980083
      6          6           0        0.860326    0.828734   -0.980254
      7          6           0        0.539887    0.490871   -2.309231
      8          6           0       -0.540201   -0.490277   -2.309237
      9          6           0       -0.860416   -0.828397   -0.980266
     10          6           0        1.875284    1.741297   -0.710473
     11          6           0        2.589939    2.311525   -1.781238
     12          6           0        2.262647    1.967685   -3.102133
     13          6           0        1.244201    1.060764   -3.370736
     14          6           0       -1.244444    1.060543    3.370592
     15          6           0       -2.263300    1.967001    3.102003
     16          6           0       -2.590935    2.310487    1.781102
     17          6           0       -1.876141    1.740480    0.710315
     18          6           0        1.875965   -1.740274    0.710396
     19          6           0        2.591001   -2.310021    1.781176
     20          6           0        2.263781   -1.965998    3.102046
     21          6           0        1.245086   -1.059351    3.370598
     22          6           0       -1.244648   -1.060017   -3.370731
     23          6           0       -2.262971   -1.967082   -3.102146
     24          6           0       -2.590009   -2.311230   -1.781269
     25          6           0       -1.875245   -1.741115   -0.710510
     26          7           0        3.665227    3.218266   -1.546548
     27          7           0       -3.666793    3.216590    1.546479
     28          7           0        3.666604   -3.216356    1.546544
     29          7           0       -3.665108   -3.218171   -1.546558
     30          6           0       -4.844728   -3.112898   -2.329940
     31          6           0        3.489192   -4.328702    0.685763
     32          6           0       -3.486668   -4.330679   -0.686189
     33          6           0        4.845963   -3.110618    2.330271
     34          6           0        3.487089    4.330696   -0.686031
     35          6           0        4.844804    3.112697   -2.329947
     36          6           0       -4.846115    3.110447    2.330176
     37          6           0       -3.489613    4.328935    0.685661
     38          6           0       -5.325664    4.185840    3.111614
     39          6           0       -6.499916    4.061097    3.866451
     40          6           0       -7.179946    2.846660    3.882499
     41          6           0       -6.720255    1.759269    3.143514
     42          6           0       -5.571983    1.895771    2.353918
     43          6           0        4.380850    4.578763    0.374729
     44          6           0        4.236473    5.712891    1.186510
     45          6           0        3.192782    6.600649    0.940722
     46          6           0        2.294553    6.385965   -0.104860
     47          6           0        2.449926    5.261588   -0.925124
     48          6           0        5.323937    4.188299   -3.111350
     49          6           0        6.498425    4.064136   -3.865916
     50          6           0        7.179117    2.850066   -3.881721
     51          6           0        6.719862    1.762481   -3.142752
     52          6           0        5.571343    1.898419   -2.353413
     53          6           0       -4.383980    4.576242   -0.374768
     54          6           0       -4.240707    5.710327   -1.186802
     55          6           0       -3.197515    6.598827   -0.941597
     56          6           0       -2.298700    6.384901    0.103639
     57          6           0       -2.452952    5.260543    0.924143
     58          6           0        2.452437   -5.260164    0.924405
     59          6           0        2.298027   -6.384596    0.104028
     60          6           0        3.196741   -6.598704   -0.941257
     61          6           0        4.239992   -5.710321   -1.186639
     62          6           0        4.383445   -4.576175   -0.374720
     63          6           0        5.572360   -1.896254    2.353859
     64          6           0        6.720723   -1.760185    3.143398
     65          6           0        7.179923   -2.847703    3.882507
     66          6           0        6.499334   -4.061827    3.866635
     67          6           0        5.325009   -4.186130    3.111830
     68          6           0       -2.449415   -5.261398   -0.925555
     69          6           0       -2.293798   -6.385874   -0.105471
     70          6           0       -3.191850   -6.600799    0.940216
     71          6           0       -4.235601   -5.713192    1.186290
     72          6           0       -4.380235   -4.578973    0.374675
     73          6           0       -5.571633   -1.898831   -2.353305
     74          6           0       -6.720244   -1.763196   -3.142559
     75          6           0       -7.179217   -2.850878   -3.881564
     76          6           0       -6.498150   -4.064736   -3.865872
     77          6           0       -5.323573   -4.188589   -3.111388
     78          1           0       -2.148843   -1.993341    0.309924
     79          1           0        2.149658   -1.992402   -0.310036
     80          1           0        2.814253   -2.429001    3.914674
     81          1           0        1.001041   -0.804636    4.399377
     82          1           0       -1.000083    0.806191    4.399386
     83          1           0       -2.813607    2.430257    3.914598
     84          1           0       -1.000706   -0.805237   -4.399518
     85          1           0       -2.813250   -2.430360   -3.914750
     86          1           0        1.000078    0.806194   -4.399532
     87          1           0        2.812850    2.431075   -3.914724
     88          1           0       -2.150188    1.992213   -0.310119
     89          1           0        2.149096    1.993278    0.309962
     90          1           0       -7.263968    0.822794    3.164527
     91          8           0       -5.074014    0.899391    1.573861
     92          8           0        5.377834    3.657989    0.537536
     93          1           0        4.919829    5.897600    2.006492
     94          1           0       -6.864674    4.891356    4.458890
     95          8           0       -4.568862    5.322097    3.090318
     96          1           0        1.509473    7.106234   -0.302698
     97          8           0        1.671896    4.994429   -2.003809
     98          8           0       -5.377269   -3.658312    0.537776
     99          1           0       -4.918810   -5.898078    2.006355
    100          1           0       -1.508673   -7.106033   -0.303531
    101          8           0       -1.671598   -4.993997   -2.004329
    102          1           0        7.264883   -0.823966    3.164270
    103          8           0        5.074806   -0.899743    1.573723
    104          1           0        6.863718   -4.892173    4.459180
    105          8           0        4.567679   -5.322032    3.090671
    106          1           0        4.923716   -5.894557   -2.006424
    107          8           0        5.379940   -3.654812   -0.537156
    108          1           0        3.084582   -7.477068   -1.571529
    109          1           0        1.513266   -7.105306    0.301515
    110          8           0        1.673790   -4.993460    2.002753
    111          8           0       -5.074299   -0.902128   -1.573266
    112          1           0       -7.264768   -0.827186   -3.163281
    113          1           0       -8.079616   -2.749864   -4.481628
    114          1           0       -6.862379   -4.895231   -4.458304
    115          8           0       -4.565815   -5.324204   -3.090427
    116          1           0       -4.924516    5.894426   -2.006546
    117          8           0       -5.380436    3.654799   -0.537005
    118          1           0       -3.085478    7.477137   -1.571966
    119          1           0       -1.513986    7.105700    0.300983
    120          8           0       -1.674182    4.994028    2.002460
    121          8           0        5.073750    0.901826   -1.573390
    122          1           0        7.264097    0.826306   -3.163579
    123          1           0        8.079439    2.748807   -4.481860
    124          1           0        6.862872    4.894550   -4.458328
    125          8           0        4.566529    5.324144   -3.090262
    126          1           0       -8.080083    2.744957    4.482840
    127          1           0        3.079915    7.478995    1.570893
    128          1           0        8.080128   -2.746345    4.482806
    129          1           0       -3.078796   -7.479223    1.570245
    130          6           0       -4.999075   -6.443869   -3.838632
    131          6           0       -0.629679   -5.891975   -2.345129
    132          6           0        6.403229   -3.933032   -1.476496
    133          6           0        5.613997    0.407038    1.709575
    134          6           0        5.000106    6.443725   -3.838413
    135          6           0        0.630176    5.892697   -2.344429
    136          6           0       -6.403773    3.932823   -1.476347
    137          6           0       -5.612542   -0.407640    1.709955
    138          1           0       -5.981604   -6.803050   -3.503603
    139          1           0       -4.254271   -7.222950   -3.664192
    140          1           0       -5.046589   -6.221774   -4.913517
    141          1           0       -0.175557   -5.483841   -3.249944
    142          1           0       -1.018302   -6.898287   -2.556023
    143          1           0        0.131993   -5.950368   -1.558885
    144          1           0        6.902817   -4.886012   -1.258357
    145          1           0        7.124126   -3.118777   -1.381065
    146          1           0        6.018463   -3.956625   -2.505187
    147          1           0        5.052731    1.040139    1.023744
    148          1           0        6.676301    0.434448    1.428643
    149          1           0        5.506353    0.771898    2.739571
    150          1           0        4.255581    7.223045   -3.663846
    151          1           0        5.047454    6.221699   -4.913319
    152          1           0        5.982785    6.802544   -3.503437
    153          1           0        0.175933    5.484822   -3.249303
    154          1           0        1.019017    6.898959   -2.555163
    155          1           0       -0.131469    5.951131   -1.558160
    156          1           0       -7.124616    3.118534   -1.380785
    157          1           0       -6.019040    3.956305   -2.505053
    158          1           0       -6.903423    4.885797   -1.258324
    159          1           0       -5.051057   -1.040557    1.024135
    160          1           0       -5.504597   -0.772309    2.739985
    161          1           0       -6.674862   -0.435620    1.429140
    162          6           0       -5.613963    0.404461   -1.709104
    163          6           0       -0.634099    5.894022    2.343522
    164          6           0        6.400086    3.936397    1.477937
    165          6           0        5.612997   -0.404925   -1.709326
    166          6           0        0.633740   -5.893401    2.344091
    167          6           0       -6.399373   -3.936960    1.478273
    168          6           0        5.001400   -6.441661    3.838668
    169          6           0       -5.003036    6.441558    3.838298
    170          1           0       -6.676227    0.431523   -1.427991
    171          1           0       -5.506618    0.769293   -2.739140
    172          1           0       -5.052822    1.037803   -1.023403
    173          1           0        5.051731   -1.038119   -1.023592
    174          1           0        6.675279   -0.432327   -1.428315
    175          1           0        5.505439   -0.769693   -2.739363
    176          1           0        4.257056   -7.221105    3.663880
    177          1           0        5.048580   -6.219828    4.913622
    178          1           0        5.984189   -6.800216    3.503737
    179          1           0       -0.128266   -5.953204    1.558270
    180          1           0        0.179336   -5.486138    3.249159
    181          1           0        1.024397   -6.898975    2.554730
    182          1           0       -7.120684   -3.122970    1.383713
    183          1           0       -6.898877   -4.890107    1.260657
    184          1           0       -6.013403   -3.960472    2.506513
    185          1           0        7.121308    3.122353    1.383165
    186          1           0        6.014255    3.959803    2.506232
    187          1           0        6.899661    4.889525    1.260395
    188          1           0       -0.179618    5.486947    3.248637
    189          1           0       -1.024710    6.899650    2.553991
    190          1           0        0.127844    5.953649    1.557623
    191          1           0       -4.259040    7.221323    3.663452
    192          1           0       -5.985997    6.799678    3.503401
    193          1           0       -5.050076    6.219736    4.913261
 ---------------------------------------------------------------------

 The electronic state is 1-A.
 Alpha  occ. eigenvalues --  -19.16647 -19.16646 -19.16646 -19.16646 -19.16236
 Alpha  occ. eigenvalues --  -19.16235 -19.16234 -19.16234 -19.15880 -19.15880
 Alpha  occ. eigenvalues --  -19.15880 -19.15879 -19.15618 -19.15617 -19.15617
 Alpha  occ. eigenvalues --  -19.15617 -14.33062 -14.33061 -14.33061 -14.33061
 Alpha  occ. eigenvalues --  -10.23279 -10.23278 -10.23278 -10.23278 -10.23224
 Alpha  occ. eigenvalues --  -10.23224 -10.23224 -10.23224 -10.23151 -10.23150
 Alpha  occ. eigenvalues --  -10.23150 -10.23149 -10.23072 -10.23071 -10.23071
 Alpha  occ. eigenvalues --  -10.23070 -10.23005 -10.23005 -10.23004 -10.23004
 Alpha  occ. eigenvalues --  -10.22802 -10.22801 -10.22801 -10.22800 -10.22124
 Alpha  occ. eigenvalues --  -10.22124 -10.22123 -10.22123 -10.21315 -10.21314
 Alpha  occ. eigenvalues --  -10.21313 -10.21313 -10.19997 -10.19996 -10.19996
 Alpha  occ. eigenvalues --  -10.19995 -10.19995 -10.19995 -10.19994 -10.19994
 Alpha  occ. eigenvalues --  -10.19394 -10.19393 -10.19393 -10.19392 -10.18686
 Alpha  occ. eigenvalues --  -10.17915 -10.17914 -10.17914 -10.17914 -10.17470
 Alpha  occ. eigenvalues --  -10.17469 -10.17469 -10.17468 -10.16943 -10.16943
 Alpha  occ. eigenvalues --  -10.16943 -10.16942 -10.16901 -10.16900 -10.16900
 Alpha  occ. eigenvalues --  -10.16900 -10.16654 -10.16653 -10.16652 -10.16652
 Alpha  occ. eigenvalues --  -10.16500 -10.16499 -10.16499 -10.16499 -10.16299
 Alpha  occ. eigenvalues --  -10.16298 -10.16298 -10.16297 -10.15811 -10.15810
 Alpha  occ. eigenvalues --  -10.15810 -10.15810 -10.15579 -10.15579 -10.15546
 Alpha  occ. eigenvalues --  -10.15545 -10.15447 -10.15447 -10.15447 -10.15447
 Alpha  occ. eigenvalues --  -10.15316 -10.15316 -10.15316 -10.15316  -1.05378
 Alpha  occ. eigenvalues --   -1.05377  -1.05371  -1.05371  -1.05059  -1.05059
 Alpha  occ. eigenvalues --   -1.05058  -1.05057  -1.04734  -1.04733  -1.04729
 Alpha  occ. eigenvalues --   -1.04728  -1.04386  -1.04385  -1.04296  -1.04296
 Alpha  occ. eigenvalues --   -0.92580  -0.92564  -0.92563  -0.92558  -0.86395
 Alpha  occ. eigenvalues --   -0.83813  -0.83314  -0.83301  -0.83295  -0.83286
 Alpha  occ. eigenvalues --   -0.82510  -0.82482  -0.82177  -0.81951  -0.80207
 Alpha  occ. eigenvalues --   -0.80153  -0.77242  -0.75430  -0.74846  -0.74797
 Alpha  occ. eigenvalues --   -0.74790  -0.74755  -0.74261  -0.74080  -0.74022
 Alpha  occ. eigenvalues --   -0.73980  -0.73884  -0.73749  -0.73674  -0.73505
 Alpha  occ. eigenvalues --   -0.73482  -0.72743  -0.72644  -0.71872  -0.71362
 Alpha  occ. eigenvalues --   -0.71021  -0.70957  -0.70862  -0.69195  -0.69194
 Alpha  occ. eigenvalues --   -0.69044  -0.69029  -0.68725  -0.68713  -0.68696
 Alpha  occ. eigenvalues --   -0.68684  -0.68353  -0.68284  -0.67554  -0.67481
 Alpha  occ. eigenvalues --   -0.67400  -0.67364  -0.66353  -0.66267  -0.65191
 Alpha  occ. eigenvalues --   -0.65134  -0.65076  -0.61464  -0.60958  -0.60519
 Alpha  occ. eigenvalues --   -0.60514  -0.60212  -0.60181  -0.59215  -0.58266
 Alpha  occ. eigenvalues --   -0.58223  -0.57371  -0.57346  -0.57220  -0.57201
 Alpha  occ. eigenvalues --   -0.57117  -0.56913  -0.56902  -0.56860  -0.56855
 Alpha  occ. eigenvalues --   -0.55721  -0.55637  -0.55637  -0.54227  -0.54226
 Alpha  occ. eigenvalues --   -0.53849  -0.53146  -0.52991  -0.52963  -0.52902
 Alpha  occ. eigenvalues --   -0.51925  -0.51915  -0.51887  -0.51546  -0.49919
 Alpha  occ. eigenvalues --   -0.49862  -0.49792  -0.49634  -0.49621  -0.49593
 Alpha  occ. eigenvalues --   -0.49572  -0.49055  -0.48787  -0.48540  -0.48268
 Alpha  occ. eigenvalues --   -0.48007  -0.47895  -0.47493  -0.47486  -0.47319
 Alpha  occ. eigenvalues --   -0.47309  -0.47222  -0.47209  -0.47167  -0.47006
 Alpha  occ. eigenvalues --   -0.46978  -0.46964  -0.46928  -0.46122  -0.46027
 Alpha  occ. eigenvalues --   -0.45961  -0.45918  -0.45845  -0.45600  -0.45599
 Alpha  occ. eigenvalues --   -0.45544  -0.45536  -0.45373  -0.45232  -0.45162
 Alpha  occ. eigenvalues --   -0.45136  -0.45111  -0.44918  -0.44817  -0.44703
 Alpha  occ. eigenvalues --   -0.44383  -0.44308  -0.44249  -0.43997  -0.43937
 Alpha  occ. eigenvalues --   -0.43615  -0.43238  -0.43183  -0.43151  -0.43113
 Alpha  occ. eigenvalues --   -0.43090  -0.42988  -0.42949  -0.42821  -0.42634
 Alpha  occ. eigenvalues --   -0.42576  -0.42269  -0.42078  -0.42041  -0.40955
 Alpha  occ. eigenvalues --   -0.40892  -0.40680  -0.40303  -0.40211  -0.40136
 Alpha  occ. eigenvalues --   -0.39676  -0.39573  -0.39450  -0.39433  -0.39208
 Alpha  occ. eigenvalues --   -0.39157  -0.38822  -0.38753  -0.38688  -0.38629
 Alpha  occ. eigenvalues --   -0.38467  -0.38460  -0.38443  -0.38282  -0.37737
 Alpha  occ. eigenvalues --   -0.37721  -0.37654  -0.37401  -0.37320  -0.37171
 Alpha  occ. eigenvalues --   -0.37044  -0.36965  -0.36914  -0.36771  -0.36733
 Alpha  occ. eigenvalues --   -0.36703  -0.36607  -0.36361  -0.36148  -0.36122
 Alpha  occ. eigenvalues --   -0.36041  -0.36011  -0.35807  -0.35698  -0.35620
 Alpha  occ. eigenvalues --   -0.35488  -0.35450  -0.33895  -0.33618  -0.33594
 Alpha  occ. eigenvalues --   -0.33548  -0.33374  -0.33092  -0.33042  -0.32929
 Alpha  occ. eigenvalues --   -0.32922  -0.32759  -0.32649  -0.32520  -0.32378
 Alpha  occ. eigenvalues --   -0.32238  -0.32131  -0.32071  -0.32019  -0.31939
 Alpha  occ. eigenvalues --   -0.31607  -0.31568  -0.31534  -0.31446  -0.31208
 Alpha  occ. eigenvalues --   -0.31163  -0.31056  -0.30980  -0.30763  -0.30710
 Alpha  occ. eigenvalues --   -0.30475  -0.30380  -0.30183  -0.29945  -0.29885
 Alpha  occ. eigenvalues --   -0.29141  -0.29116  -0.28964  -0.28511  -0.28497
 Alpha  occ. eigenvalues --   -0.28459  -0.28450  -0.28397  -0.28375  -0.27261
 Alpha  occ. eigenvalues --   -0.26892  -0.25808  -0.25600  -0.23062  -0.23046
 Alpha  occ. eigenvalues --   -0.23001  -0.21477  -0.21477  -0.21349  -0.20996
 Alpha  occ. eigenvalues --   -0.20954  -0.20634  -0.20566  -0.20538  -0.20507
 Alpha  occ. eigenvalues --   -0.20123  -0.20041  -0.20007  -0.19871  -0.19857
 Alpha  occ. eigenvalues --   -0.19805  -0.19606  -0.19012  -0.16683  -0.16573
 Alpha  occ. eigenvalues --   -0.14651  -0.14447
 Alpha virt. eigenvalues --   -0.00089   0.00016   0.00586   0.00592   0.00617
 Alpha virt. eigenvalues --    0.00755   0.01852   0.01894   0.02527   0.02814
 Alpha virt. eigenvalues --    0.03123   0.03145   0.03347   0.03671   0.03958

 Mulliken atomic charges:
              1
     1  C   -0.282180
     2  C    0.121501
     3  C    0.068778
     4  C    0.068785
     5  C    0.121503
     6  C    0.121503
     7  C    0.068784
     8  C    0.068781
     9  C    0.121491
    10  C   -0.232602
    11  C    0.348080
    12  C   -0.173840
    13  C   -0.207870
    14  C   -0.207859
    15  C   -0.173858
    16  C    0.348101
    17  C   -0.232600
    18  C   -0.232629
    19  C    0.348183
    20  C   -0.173894
    21  C   -0.207861
    22  C   -0.207878
    23  C   -0.173850
    24  C    0.348106
    25  C   -0.232615
    26  N   -0.629073
    27  N   -0.629067
    28  N   -0.629046
    29  N   -0.629067
    30  C    0.189766
    31  C    0.177701
    32  C    0.177708
    33  C    0.189676
    34  C    0.177766
    35  C    0.189783
    36  C    0.189751
    37  C    0.177783
    38  C    0.344769
    39  C   -0.214985
    40  C   -0.143749
    41  C   -0.209041
    42  C    0.366553
    43  C    0.347786
    44  C   -0.209077
    45  C   -0.144506
    46  C   -0.221140
    47  C    0.386161
    48  C    0.344772
    49  C   -0.214982
    50  C   -0.143749
    51  C   -0.209040
    52  C    0.366536
    53  C    0.347761
    54  C   -0.209065
    55  C   -0.144508
    56  C   -0.221156
    57  C    0.386148
    58  C    0.386205
    59  C   -0.221174
    60  C   -0.144503
    61  C   -0.209065
    62  C    0.347759
    63  C    0.366590
    64  C   -0.209053
    65  C   -0.143741
    66  C   -0.214988
    67  C    0.344789
    68  C    0.386197
    69  C   -0.221156
    70  C   -0.144502
    71  C   -0.209077
    72  C    0.347794
    73  C    0.366552
    74  C   -0.209048
    75  C   -0.143745
    76  C   -0.214985
    77  C    0.344777
    78  H    0.139136
    79  H    0.139129
    80  H    0.128077
    81  H    0.116138
    82  H    0.116138
    83  H    0.128077
    84  H    0.116140
    85  H    0.128079
    86  H    0.116138
    87  H    0.128078
    88  H    0.139138
    89  H    0.139144
    90  H    0.122442
    91  O   -0.507056
    92  O   -0.507543
    93  H    0.123325
    94  H    0.121888
    95  O   -0.506333
    96  H    0.124968
    97  O   -0.502415
    98  O   -0.507540
    99  H    0.123326
   100  H    0.124976
   101  O   -0.502421
   102  H    0.122448
   103  O   -0.507045
   104  H    0.121891
   105  O   -0.506324
   106  H    0.123330
   107  O   -0.507542
   108  H    0.120030
   109  H    0.124980
   110  O   -0.502415
   111  O   -0.507054
   112  H    0.122442
   113  H    0.120015
   114  H    0.121886
   115  O   -0.506325
   116  H    0.123328
   117  O   -0.507546
   118  H    0.120027
   119  H    0.124969
   120  O   -0.502411
   121  O   -0.507061
   122  H    0.122438
   123  H    0.120012
   124  H    0.121886
   125  O   -0.506327
   126  H    0.120017
   127  H    0.120020
   128  H    0.120022
   129  H    0.120021
   130  C   -0.208359
   131  C   -0.224539
   132  C   -0.212802
   133  C   -0.237623
   134  C   -0.208360
   135  C   -0.224527
   136  C   -0.212803
   137  C   -0.237595
   138  H    0.147700
   139  H    0.164742
   140  H    0.147114
   141  H    0.170489
   142  H    0.135000
   143  H    0.168005
   144  H    0.151932
   145  H    0.166699
   146  H    0.148580
   147  H    0.221445
   148  H    0.132060
   149  H    0.142170
   150  H    0.164744
   151  H    0.147113
   152  H    0.147699
   153  H    0.170491
   154  H    0.135004
   155  H    0.167984
   156  H    0.166698
   157  H    0.148580
   158  H    0.151929
   159  H    0.221434
   160  H    0.142165
   161  H    0.132061
   162  C   -0.237614
   163  C   -0.224520
   164  C   -0.212807
   165  C   -0.237602
   166  C   -0.224532
   167  C   -0.212806
   168  C   -0.208366
   169  C   -0.208364
   170  H    0.132053
   171  H    0.142167
   172  H    0.221446
   173  H    0.221452
   174  H    0.132048
   175  H    0.142165
   176  H    0.164736
   177  H    0.147117
   178  H    0.147708
   179  H    0.167974
   180  H    0.170483
   181  H    0.135010
   182  H    0.166695
   183  H    0.151923
   184  H    0.148589
   185  H    0.166692
   186  H    0.148590
   187  H    0.151923
   188  H    0.170483
   189  H    0.135014
   190  H    0.167956
   191  H    0.164737
   192  H    0.147704
   193  H    0.147114
 Sum of Mulliken atomic charges =   0.00000

 Dipole moment (field-independent basis, Debye):
    X=              0.0012    Y=             -0.0025    Z=              0.0030  Tot=              0.0041
 Quadrupole moment (field-independent basis, Debye-Ang):
   XX=           -542.0815   YY=           -513.5914   ZZ=           -581.6398
   XY=             -0.0360   XZ=              0.0013   YZ=             -0.0028

 Normal termination of Gaussian 09 at Thu Aug  7 08:26:50 2014.
