 Gaussian 09, Revision A.02,
 Gaussian 09:  EM64L-G09RevA.02 11-Jun-2009

 -------------------
 #p opt b3lyp/6-31g*
 -------------------

 ----------
 Auto Spiro
 ----------
 Symbolic Z-matrix:
 Charge =  0 Multiplicity = 1

 SCF Done:  E(RB3LYP) =  -3948.29424714     A.U. after   15 cycles
 SCF Done:  E(RB3LYP) =  -3948.29569597     A.U. after   13 cycles
 SCF Done:  E(RB3LYP) =  -3948.29236068     A.U. after   16 cycles
 SCF Done:  E(RB3LYP) =  -3948.29589562     A.U. after   16 cycles
 SCF Done:  E(RB3LYP) =  -3948.29576419     A.U. after   12 cycles
 SCF Done:  E(RB3LYP) =  -3948.29610239     A.U. after   12 cycles
 SCF Done:  E(RB3LYP) =  -3948.29619975     A.U. after   16 cycles
 SCF Done:  E(RB3LYP) =  -3948.29627520     A.U. after   12 cycles
 SCF Done:  E(RB3LYP) =  -3948.29630976     A.U. after   10 cycles
 SCF Done:  E(RB3LYP) =  -3948.29633534     A.U. after   10 cycles
 SCF Done:  E(RB3LYP) =  -3948.29634276     A.U. after    9 cycles
 SCF Done:  E(RB3LYP) =  -3948.29634292     A.U. after    7 cycles
 SCF Done:  E(RB3LYP) =  -3948.29634399     A.U. after    7 cycles
 SCF Done:  E(RB3LYP) =  -3948.29634340     A.U. after    6 cycles
 SCF Done:  E(RB3LYP) =  -3948.29634263     A.U. after    6 cycles
 SCF Done:  E(RB3LYP) =  -3948.29634237     A.U. after    6 cycles
 Optimization completed.
    -- Stationary point found.

                         Standard orientation:
 ---------------------------------------------------------------------
 Center     Atomic      Atomic             Coordinates (Angstroms)
 Number     Number       Type             X           Y           Z
 ---------------------------------------------------------------------
      1          6           0       -0.033100    0.060747   -0.001812
      2          6           0       -0.820358    0.962808    0.956441
      3          6           0       -0.538927    0.626776    2.295284
      4          6           0        0.427370   -0.472949    2.312332
      5          6           0        0.737170   -0.825783    0.983991
      6          6           0       -0.918918   -0.727713   -0.974280
      7          6           0       -0.573627   -0.432104   -2.307696
      8          6           0        0.532333    0.526910   -2.307051
      9          6           0        0.865748    0.834899   -0.973448
     10          6           0       -1.945755   -1.608096   -0.673696
     11          6           0       -2.651084   -2.228906   -1.723731
     12          6           0       -2.299820   -1.938042   -3.056637
     13          6           0       -1.275444   -1.041486   -3.350504
     14          6           0        1.036241   -1.161764    3.364158
     15          6           0        1.931299   -2.191856    3.084695
     16          6           0        2.247127   -2.540492    1.756728
     17          6           0        1.638003   -1.838496    0.697493
     18          6           0       -1.711954    1.974079    0.638108
     19          6           0       -2.340905    2.691719    1.675054
     20          6           0       -2.055305    2.358070    3.013783
     21          6           0       -1.168742    1.329841    3.325229
     22          6           0        1.244348    1.125571   -3.349454
     23          6           0        2.267542    2.023036   -3.054567
     24          6           0        2.607727    2.325245   -1.721472
     25          6           0        1.892244    1.716007   -0.672038
     26          7           0       -3.705003   -3.134960   -1.444040
     27          7           0        3.166629   -3.585582    1.488657
     28          7           0       -3.247234    3.738930    1.373045
     29          7           0        3.662172    3.233442   -1.444701
     30          6           0        4.858523    3.187046   -2.214758
     31          6           0       -2.979103    4.629396    0.295036
     32          6           0        3.544537    4.175040   -0.386226
     33          6           0       -4.420187    3.926445    2.155976
     34          6           0       -3.589957   -4.063873   -0.372783
     35          6           0       -4.878048   -3.134774   -2.250270
     36          6           0        4.315349   -3.760559    2.309992
     37          6           0        2.938720   -4.480068    0.405189
     38          6           0        4.698282   -5.032854    2.749736
     39          6           0        5.837375   -5.214010    3.537569
     40          6           0        6.604161   -4.108534    3.920588
     41          6           0        6.221583   -2.828378    3.493665
     42          6           0        5.101962   -2.658337    2.691881
     43          6           0       -4.668352   -4.307737    0.485357
     44          6           0       -4.573783   -5.240618    1.520556
     45          6           0       -3.376556   -5.933133    1.729010
     46          6           0       -2.286184   -5.685311    0.882139
     47          6           0       -2.393802   -4.773025   -0.158332
     48          6           0       -5.435745   -4.332286   -2.711990
     49          6           0       -6.598708   -4.337691   -3.485735
     50          6           0       -7.212304   -3.129087   -3.832014
     51          6           0       -6.653933   -1.923360   -3.382554
     52          6           0       -5.511458   -1.926943   -2.595091
     53          6           0        3.978003   -4.839286   -0.460084
     54          6           0        3.768058   -5.735734   -1.510459
     55          6           0        2.494527   -6.272825   -1.725621
     56          6           0        1.444075   -5.909656   -0.869754
     57          6           0        1.664978   -5.035162    0.185204
     58          6           0       -1.702432    5.172087    0.109602
     59          6           0       -1.433725    6.042011   -0.949801
     60          6           0       -2.456796    6.403267   -1.833680
     61          6           0       -3.741713    5.873136   -1.647554
     62          6           0       -3.995970    4.991886   -0.605989
     63          6           0       -5.217063    2.838806    2.532745
     64          6           0       -6.365743    3.017644    3.306675
     65          6           0       -6.751683    4.304528    3.697147
     66          6           0       -5.966069    5.400997    3.313722
     67          6           0       -4.813063    5.213809    2.564561
     68          6           0        2.340496    4.871780   -0.172045
     69          6           0        2.229003    5.798305    0.855166
     70          6           0        3.322660    6.075023    1.688972
     71          6           0        4.526601    5.394563    1.481573
     72          6           0        4.625628    4.446378    0.460586
     73          6           0        5.479466    1.966882   -2.504869
     74          6           0        6.646503    1.913144   -3.270310
     75          6           0        7.228113    3.095552   -3.740271
     76          6           0        6.619077    4.323960   -3.444080
     77          6           0        5.447061    4.367811   -2.702376
     78          1           0        2.152528    1.937271    0.358419
     79          1           0       -1.932013    2.217704   -0.396538
     80          1           0       -2.534179    2.918533    3.810034
     81          1           0       -0.962821    1.095580    4.366778
     82          1           0        0.808492   -0.914287    4.398044
     83          1           0        2.394153   -2.740943    3.898165
     84          1           0        0.999684    0.910690   -4.386743
     85          1           0        2.816553    2.502100   -3.858884
     86          1           0       -1.022483   -0.835740   -4.387651
     87          1           0       -2.839488   -2.426052   -3.861703
     88          1           0        1.880913   -2.093488   -0.329289
     89          1           0       -2.215068   -1.819865    0.356411
     90          8           0        3.110292    7.015651    2.659269
     91          6           0        4.179540    7.317725    3.538605
     92          8           0       -7.860942    4.597023    4.443285
     93          6           0       -8.693482    3.524466    4.847750
     94          8           0        7.729856   -4.166813    4.696438
     95          8           0       -3.168862   -6.860661    2.712999
     96          6           0       -4.236833   -7.139737    3.601022
     97          6           0        8.152090   -5.436045    5.163494
     98          1           0        6.829091   -1.979072    3.790987
     99          1           0        4.823808   -1.664049    2.356752
    100          1           0       -5.598000   -3.766916    0.338265
    101          1           0       -5.433407   -5.403652    2.160812
    102          1           0        6.102873   -6.216167    3.854839
    103          1           0        4.102019   -5.895092    2.468064
    104          1           0       -1.365313   -6.235964    1.049599
    105          1           0       -1.545398   -4.599280   -0.812894
    106          1           0        5.561138    3.915059    0.317157
    107          1           0        5.389174    5.578353    2.112122
    108          1           0        1.300814    6.336053    1.024710
    109          1           0        1.487925    4.674269   -0.814338
    110          1           0       -6.954178    2.149374    3.581209
    111          1           0       -4.933649    1.838121    2.221766
    112          1           0       -6.272006    6.394109    3.628157
    113          1           0       -4.206847    6.069605    2.284916
    114          1           0       -8.154390    2.810042    5.484925
    115          1           0       -9.112815    2.988700    3.985218
    116          1           0       -9.506497    3.974428    5.421005
    117          1           0       -5.112124   -7.538531    3.070073
    118          1           0       -4.537656   -6.247422    4.166802
    119          1           0       -3.862078   -7.895346    4.294277
    120          1           0        9.052235   -5.255028    5.754257
    121          1           0        8.394823   -6.113944    4.333666
    122          1           0        7.391038   -5.908026    5.799765
    123          1           0        5.047771    7.719239    2.998255
    124          1           0        4.492610    6.435864    4.113909
    125          1           0        3.799726    8.077902    4.224011
    126          1           0       -4.525337    6.155154   -2.344023
    127          1           0       -4.991725    4.578530   -0.479636
    128          1           0       -0.431644    6.440671   -1.061943
    129          1           0       -0.905423    4.905451    0.796831
    130          1           0        5.041948    1.045722   -2.132726
    131          1           0        7.095172    0.948089   -3.477096
    132          1           0        7.076033    5.233905   -3.820867
    133          1           0        4.977816    5.323329   -2.489647
    134          1           0        4.599726   -5.992272   -2.156969
    135          1           0        4.967010   -4.418590   -0.307173
    136          1           0        0.462512   -6.340757   -1.042546
    137          1           0        0.846489   -4.769304    0.846969
    138          1           0       -5.096254   -0.988321   -2.241595
    139          1           0       -7.143716   -0.992377   -3.651059
    140          1           0       -7.002419   -5.286424   -3.821058
    141          1           0       -4.958795   -5.273963   -2.458628
    142          8           0       -2.309366    7.253154   -2.894740
    143          6           0       -1.027366    7.810942   -3.128740
    144          8           0       -8.344892   -3.015541   -4.591262
    145          6           0       -8.943435   -4.204321   -5.076802
    146          8           0        2.173547   -7.149903   -2.725012
    147          6           0        3.195226   -7.532780   -3.628820
    148          8           0        8.372478    3.161908   -4.487088
    149          6           0        9.029158    1.948121   -4.808743
    150          1           0       -1.131575    8.442339   -4.013275
    151          1           0       -0.276865    7.033406   -3.325294
    152          1           0       -0.692414    8.426399   -2.282825
    153          1           0        9.902805    2.226682   -5.401273
    154          1           0        8.386083    1.284147   -5.402421
    155          1           0        9.359037    1.414298   -3.907102
    156          1           0        2.728359   -8.220490   -4.336659
    157          1           0        4.019480   -8.046853   -3.115541
    158          1           0        3.597315   -6.668866   -4.175298
    159          1           0       -9.819106   -3.888886   -5.647487
    160          1           0       -9.263811   -4.861565   -4.256792
    161          1           0       -8.263395   -4.760823   -5.736096
 ---------------------------------------------------------------------

 The electronic state is 1-A.
 Alpha  occ. eigenvalues --  -19.17322 -19.17276 -19.17232 -19.17211 -19.17152
 Alpha  occ. eigenvalues --  -19.17130 -19.17039 -19.16916 -14.35223 -14.35184
 Alpha  occ. eigenvalues --  -14.35133 -14.35001 -10.24025 -10.23949 -10.23942
 Alpha  occ. eigenvalues --  -10.23902 -10.23851 -10.23839 -10.23837 -10.23827
 Alpha  occ. eigenvalues --  -10.23780 -10.23767 -10.23713 -10.23708 -10.23660
 Alpha  occ. eigenvalues --  -10.23655 -10.23611 -10.23380 -10.21828 -10.21790
 Alpha  occ. eigenvalues --  -10.21776 -10.21702 -10.21620 -10.21603 -10.21595
 Alpha  occ. eigenvalues --  -10.21550 -10.21519 -10.21515 -10.21379 -10.21286
 Alpha  occ. eigenvalues --  -10.20269 -10.18483 -10.18447 -10.18433 -10.18408
 Alpha  occ. eigenvalues --  -10.18398 -10.18394 -10.18364 -10.18354 -10.18347
 Alpha  occ. eigenvalues --  -10.18346 -10.18340 -10.18313 -10.18304 -10.18298
 Alpha  occ. eigenvalues --  -10.18279 -10.18269 -10.18265 -10.18260 -10.18259
 Alpha  occ. eigenvalues --  -10.18236 -10.18224 -10.18216 -10.18200 -10.18146
 Alpha  occ. eigenvalues --  -10.18124 -10.18120 -10.18069 -10.18066 -10.18044
 Alpha  occ. eigenvalues --  -10.18043 -10.18036 -10.18032 -10.18028 -10.17969
 Alpha  occ. eigenvalues --  -10.17965 -10.17965 -10.17945 -10.17900 -10.17840
 Alpha  occ. eigenvalues --  -10.17804 -10.17767 -10.17743 -10.17736 -10.17689
 Alpha  occ. eigenvalues --  -10.17688 -10.17587 -10.17582 -10.17570 -10.17506
 Alpha  occ. eigenvalues --  -10.17490 -10.17476 -10.17386  -1.05866  -1.05817
 Alpha  occ. eigenvalues --   -1.05787  -1.05758  -1.05704  -1.05678  -1.05580
 Alpha  occ. eigenvalues --   -1.05462  -0.95172  -0.95132  -0.95089  -0.94945
 Alpha  occ. eigenvalues --   -0.88744  -0.85851  -0.84660  -0.84653  -0.84580
 Alpha  occ. eigenvalues --   -0.84398  -0.84092  -0.84016  -0.83437  -0.83175
 Alpha  occ. eigenvalues --   -0.81976  -0.81884  -0.79274  -0.77214  -0.76002
 Alpha  occ. eigenvalues --   -0.75618  -0.75495  -0.75459  -0.75375  -0.74863
 Alpha  occ. eigenvalues --   -0.74747  -0.74365  -0.74354  -0.74274  -0.74256
 Alpha  occ. eigenvalues --   -0.74226  -0.73692  -0.73567  -0.73436  -0.73364
 Alpha  occ. eigenvalues --   -0.73086  -0.72990  -0.72615  -0.72539  -0.70538
 Alpha  occ. eigenvalues --   -0.70328  -0.69547  -0.69435  -0.69359  -0.69293
 Alpha  occ. eigenvalues --   -0.67906  -0.67715  -0.67134  -0.66323  -0.66242
 Alpha  occ. eigenvalues --   -0.63072  -0.62533  -0.61710  -0.61393  -0.61345
 Alpha  occ. eigenvalues --   -0.61004  -0.60923  -0.60896  -0.60459  -0.60387
 Alpha  occ. eigenvalues --   -0.59624  -0.59587  -0.59479  -0.59165  -0.58946
 Alpha  occ. eigenvalues --   -0.58250  -0.58081  -0.57480  -0.57308  -0.57206
 Alpha  occ. eigenvalues --   -0.55841  -0.55634  -0.55491  -0.54870  -0.53409
 Alpha  occ. eigenvalues --   -0.53334  -0.53216  -0.53021  -0.52883  -0.52781
 Alpha  occ. eigenvalues --   -0.52627  -0.52489  -0.51686  -0.51323  -0.51166
 Alpha  occ. eigenvalues --   -0.50764  -0.50673  -0.50351  -0.50326  -0.49402
 Alpha  occ. eigenvalues --   -0.48755  -0.48397  -0.48188  -0.48068  -0.47930
 Alpha  occ. eigenvalues --   -0.47697  -0.47002  -0.46950  -0.46886  -0.46469
 Alpha  occ. eigenvalues --   -0.46443  -0.46394  -0.46379  -0.46320  -0.46277
 Alpha  occ. eigenvalues --   -0.46213  -0.46080  -0.46019  -0.45963  -0.45589
 Alpha  occ. eigenvalues --   -0.44361  -0.44350  -0.44324  -0.44289  -0.44250
 Alpha  occ. eigenvalues --   -0.44185  -0.44094  -0.43947  -0.43192  -0.43094
 Alpha  occ. eigenvalues --   -0.42817  -0.42710  -0.42512  -0.42347  -0.42299
 Alpha  occ. eigenvalues --   -0.42196  -0.42102  -0.41944  -0.41877  -0.41817
 Alpha  occ. eigenvalues --   -0.41757  -0.41596  -0.41499  -0.41448  -0.41417
 Alpha  occ. eigenvalues --   -0.41185  -0.41062  -0.40958  -0.40924  -0.40688
 Alpha  occ. eigenvalues --   -0.40663  -0.40607  -0.40309  -0.40277  -0.39877
 Alpha  occ. eigenvalues --   -0.39528  -0.39228  -0.38392  -0.38111  -0.38050
 Alpha  occ. eigenvalues --   -0.37905  -0.37608  -0.37513  -0.37350  -0.37320
 Alpha  occ. eigenvalues --   -0.37224  -0.37202  -0.37191  -0.37140  -0.37092
 Alpha  occ. eigenvalues --   -0.36921  -0.36364  -0.36074  -0.35988  -0.35803
 Alpha  occ. eigenvalues --   -0.35765  -0.35725  -0.35481  -0.35371  -0.35322
 Alpha  occ. eigenvalues --   -0.35196  -0.34985  -0.34946  -0.34591  -0.34323
 Alpha  occ. eigenvalues --   -0.33390  -0.33121  -0.32817  -0.32565  -0.32458
 Alpha  occ. eigenvalues --   -0.32274  -0.32211  -0.32177  -0.32130  -0.32120
 Alpha  occ. eigenvalues --   -0.32096  -0.32048  -0.32005  -0.31887  -0.31801
 Alpha  occ. eigenvalues --   -0.31684  -0.31647  -0.31595  -0.31390  -0.30998
 Alpha  occ. eigenvalues --   -0.29423  -0.29110  -0.27269  -0.26885  -0.25441
 Alpha  occ. eigenvalues --   -0.25080  -0.24961  -0.24923  -0.24877  -0.24810
 Alpha  occ. eigenvalues --   -0.24609  -0.24438  -0.24176  -0.24069  -0.24019
 Alpha  occ. eigenvalues --   -0.23387  -0.23333  -0.22766  -0.22005  -0.21940
 Alpha  occ. eigenvalues --   -0.21915  -0.21618  -0.21541  -0.20746  -0.17156
 Alpha  occ. eigenvalues --   -0.17093  -0.15537  -0.15384
 Alpha virt. eigenvalues --   -0.02172  -0.02037  -0.01148  -0.00997  -0.00650
 Alpha virt. eigenvalues --   -0.00362   0.00606   0.00613   0.00698   0.00798
 Alpha virt. eigenvalues --    0.00857   0.01033   0.01051   0.01160   0.01169

 Mulliken atomic charges:
              1
     1  C   -0.272597
     2  C    0.125074
     3  C    0.072409
     4  C    0.072398
     5  C    0.124587
     6  C    0.125560
     7  C    0.072125
     8  C    0.072309
     9  C    0.124528
    10  C   -0.246284
    11  C    0.294387
    12  C   -0.181185
    13  C   -0.203219
    14  C   -0.204220
    15  C   -0.182391
    16  C    0.296995
    17  C   -0.248552
    18  C   -0.247941
    19  C    0.296744
    20  C   -0.181773
    21  C   -0.204553
    22  C   -0.203919
    23  C   -0.180116
    24  C    0.290655
    25  C   -0.246187
    26  N   -0.662014
    27  N   -0.662372
    28  N   -0.662051
    29  N   -0.662486
    30  C    0.271254
    31  C    0.274573
    32  C    0.285953
    33  C    0.276615
    34  C    0.280558
    35  C    0.272772
    36  C    0.275415
    37  C    0.275788
    38  C   -0.174313
    39  C   -0.206091
    40  C    0.377128
    41  C   -0.184564
    42  C   -0.164259
    43  C   -0.173409
    44  C   -0.205352
    45  C    0.378943
    46  C   -0.192040
    47  C   -0.171274
    48  C   -0.173242
    49  C   -0.206230
    50  C    0.377283
    51  C   -0.184564
    52  C   -0.163468
    53  C   -0.171382
    54  C   -0.205605
    55  C    0.379360
    56  C   -0.192138
    57  C   -0.169287
    58  C   -0.176606
    59  C   -0.214903
    60  C    0.380030
    61  C   -0.183894
    62  C   -0.163306
    63  C   -0.172246
    64  C   -0.205967
    65  C    0.377198
    66  C   -0.183826
    67  C   -0.166989
    68  C   -0.174649
    69  C   -0.193058
    70  C    0.379035
    71  C   -0.204854
    72  C   -0.176861
    73  C   -0.171348
    74  C   -0.206118
    75  C    0.377651
    76  C   -0.184386
    77  C   -0.163343
    78  H    0.149853
    79  H    0.149395
    80  H    0.139355
    81  H    0.126427
    82  H    0.126897
    83  H    0.139252
    84  H    0.127318
    85  H    0.137819
    86  H    0.127191
    87  H    0.139431
    88  H    0.148502
    89  H    0.149128
    90  O   -0.509962
    91  C   -0.213143
    92  O   -0.510432
    93  C   -0.212640
    94  O   -0.510398
    95  O   -0.509629
    96  C   -0.212575
    97  C   -0.212764
    98  H    0.137942
    99  H    0.146275
   100  H    0.141824
   101  H    0.130222
   102  H    0.130839
   103  H    0.143058
   104  H    0.143057
   105  H    0.151857
   106  H    0.143196
   107  H    0.131523
   108  H    0.142178
   109  H    0.149695
   110  H    0.131002
   111  H    0.145038
   112  H    0.137825
   113  H    0.144320
   114  H    0.149249
   115  H    0.150035
   116  H    0.167278
   117  H    0.148604
   118  H    0.150427
   119  H    0.167705
   120  H    0.167636
   121  H    0.149011
   122  H    0.150314
   123  H    0.148945
   124  H    0.151197
   125  H    0.168169
   126  H    0.138067
   127  H    0.143042
   128  H    0.138390
   129  H    0.151043
   130  H    0.146208
   131  H    0.131948
   132  H    0.137645
   133  H    0.141642
   134  H    0.130188
   135  H    0.141181
   136  H    0.143939
   137  H    0.152421
   138  H    0.147008
   139  H    0.139302
   140  H    0.130777
   141  H    0.142785
   142  O   -0.510474
   143  C   -0.214865
   144  O   -0.509905
   145  C   -0.212750
   146  O   -0.509238
   147  C   -0.212676
   148  O   -0.510218
   149  C   -0.213204
   150  H    0.167211
   151  H    0.153328
   152  H    0.151176
   153  H    0.167896
   154  H    0.150104
   155  H    0.150346
   156  H    0.168099
   157  H    0.148665
   158  H    0.150495
   159  H    0.167914
   160  H    0.149004
   161  H    0.150165
 Sum of Mulliken atomic charges =   0.00000

 Dipole moment (field-independent basis, Debye):
    X=              1.8538    Y=             -4.5366    Z=              0.5210  Tot=              4.9284
 Quadrupole moment (field-independent basis, Debye-Ang):
   XX=           -457.2782   YY=           -489.8133   ZZ=           -490.3563
   XY=             14.6634   XZ=             -9.6783   YZ=              5.1832

 Normal termination of Gaussian 09 at Wed Aug  6 20:29:51 2014.
