 Gaussian 09, Revision A.02,
 Gaussian 09:  EM64L-G09RevA.02 11-Jun-2009

 -------------------
 #p opt b3lyp/6-31g*
 -------------------

 ----------
 Auto Spiro
 ----------
 Symbolic Z-matrix:
 Charge =  0 Multiplicity = 1

 SCF Done:  E(RB3LYP) =  -3948.25604863     A.U. after   16 cycles
 SCF Done:  E(RB3LYP) =  -3948.25695361     A.U. after   13 cycles
 SCF Done:  E(RB3LYP) =  -3948.25177785     A.U. after   13 cycles
 SCF Done:  E(RB3LYP) =  -3948.25773306     A.U. after   12 cycles
 SCF Done:  E(RB3LYP) =  -3948.25800332     A.U. after   12 cycles
 SCF Done:  E(RB3LYP) =  -3948.25805625     A.U. after   12 cycles
 SCF Done:  E(RB3LYP) =  -3948.25847254     A.U. after   11 cycles
 SCF Done:  E(RB3LYP) =  -3948.25846085     A.U. after   12 cycles
 SCF Done:  E(RB3LYP) =  -3948.25866599     A.U. after   11 cycles
 SCF Done:  E(RB3LYP) =  -3948.25870338     A.U. after   10 cycles
 SCF Done:  E(RB3LYP) =  -3948.25873726     A.U. after   10 cycles
 SCF Done:  E(RB3LYP) =  -3948.25874627     A.U. after   10 cycles
 SCF Done:  E(RB3LYP) =  -3948.25874877     A.U. after   10 cycles
 SCF Done:  E(RB3LYP) =  -3948.25875237     A.U. after   10 cycles
 SCF Done:  E(RB3LYP) =  -3948.25875424     A.U. after    8 cycles
 SCF Done:  E(RB3LYP) =  -3948.25875427     A.U. after    7 cycles
 SCF Done:  E(RB3LYP) =  -3948.25875463     A.U. after    7 cycles
 SCF Done:  E(RB3LYP) =  -3948.25875443     A.U. after    6 cycles
 SCF Done:  E(RB3LYP) =  -3948.25875447     A.U. after    6 cycles
 Optimization completed.
    -- Stationary point found.

                         Standard orientation:
 ---------------------------------------------------------------------
 Center     Atomic      Atomic             Coordinates (Angstroms)
 Number     Number       Type             X           Y           Z
 ---------------------------------------------------------------------
      1          6           0       -0.038574    0.039905    0.017485
      2          6           0       -0.881721    0.867467    0.993186
      3          6           0       -0.656824    0.440334    2.319610
      4          6           0        0.362486   -0.609770    2.316194
      5          6           0        0.767150   -0.843081    0.989835
      6          6           0       -0.877857   -0.800187   -0.961694
      7          6           0       -0.379038   -0.661720   -2.269524
      8          6           0        0.728580    0.295187   -2.257089
      9          6           0        0.895434    0.781675   -0.945490
     10          6           0       -1.989411   -1.586259   -0.690558
     11          6           0       -2.620094   -2.274790   -1.746255
     12          6           0       -2.079715   -2.180468   -3.045817
     13          6           0       -0.979440   -1.372299   -3.311135
     14          6           0        0.965207   -1.329589    3.349316
     15          6           0        1.973521   -2.244716    3.055900
     16          6           0        2.421473   -2.433773    1.735195
     17          6           0        1.791809   -1.726557    0.690856
     18          6           0       -1.813127    1.854752    0.709311
     19          6           0       -2.537150    2.446550    1.764255
     20          6           0       -2.292934    2.034252    3.084964
     21          6           0       -1.366393    1.031888    3.364589
     22          6           0        1.572866    0.739527   -3.279120
     23          6           0        2.572629    1.661817   -2.982575
     24          6           0        2.739695    2.148371   -1.676557
     25          6           0        1.888199    1.708139   -0.650090
     26          7           0       -3.791219   -3.040291   -1.534061
     27          7           0        3.509407   -3.304025    1.449569
     28          7           0       -3.525479    3.431784    1.482628
     29          7           0        3.808388    3.064986   -1.405503
     30          6           0        5.141604    2.591626   -1.498095
     31          6           0       -3.211326    4.504487    0.599664
     32          6           0        3.517360    4.217611   -0.620904
     33          6           0       -4.611451    3.626000    2.386329
     34          6           0       -4.173371   -3.481173   -0.235175
     35          6           0       -4.781840   -3.115927   -2.556727
     36          6           0        4.427118   -3.684920    2.471739
     37          6           0        3.507529   -4.065381    0.244515
     38          6           0        4.677617   -5.042167    2.720653
     39          6           0        5.581424   -5.446355    3.701639
     40          6           0        6.240861   -4.492443    4.476784
     41          6           0        6.000955   -3.138198    4.244666
     42          6           0        5.119111   -2.723927    3.244911
     43          6           0       -5.406548   -3.103783    0.302694
     44          6           0       -5.832483   -3.569378    1.549188
     45          6           0       -5.001520   -4.408194    2.285595
     46          6           0       -3.762943   -4.799552    1.769579
     47          6           0       -3.349398   -4.362612    0.506630
     48          6           0       -5.302956   -4.376022   -2.940604
     49          6           0       -6.292476   -4.445644   -3.927118
     50          6           0       -6.751909   -3.281851   -4.549723
     51          6           0       -6.235175   -2.040186   -4.188126
     52          6           0       -5.263361   -1.965706   -3.189183
     53          6           0        4.685615   -4.172586   -0.536690
     54          6           0        4.678156   -4.937319   -1.706835
     55          6           0        3.508470   -5.574595   -2.128865
     56          6           0        2.341405   -5.459729   -1.379157
     57          6           0        2.353721   -4.719943   -0.196281
     58          6           0       -1.976841    5.164832    0.679481
     59          6           0       -1.693705    6.263318   -0.130104
     60          6           0       -2.649141    6.727802   -1.036476
     61          6           0       -3.874252    6.069880   -1.140842
     62          6           0       -4.161176    4.959921   -0.343350
     63          6           0       -5.489583    2.555471    2.689066
     64          6           0       -6.550586    2.755960    3.575599
     65          6           0       -6.769471    4.014208    4.144822
     66          6           0       -5.923321    5.075361    3.839579
     67          6           0       -4.847120    4.871572    2.973853
     68          6           0        2.604563    5.178655   -1.118692
     69          6           0        2.308970    6.313915   -0.359996
     70          6           0        2.921419    6.510451    0.882262
     71          6           0        3.828841    5.576190    1.372422
     72          6           0        4.114999    4.434059    0.621808
     73          6           0        5.449122    1.239307   -1.269919
     74          6           0        6.757142    0.766710   -1.366465
     75          6           0        7.800424    1.640351   -1.672943
     76          6           0        7.512320    2.985113   -1.907795
     77          6           0        6.203471    3.462733   -1.842484
     78          1           0        2.030232    2.074838    0.362457
     79          1           0       -2.001765    2.165016   -0.314125
     80          1           0       -2.840941    2.503845    3.895190
     81          1           0       -1.197747    0.727134    4.394501
     82          1           0        0.661557   -1.182277    4.382793
     83          1           0        2.441527   -2.800304    3.860736
     84          1           0        1.454486    0.374748   -4.296404
     85          1           0        3.238476    2.021194   -3.761149
     86          1           0       -0.598956   -1.300915   -4.327214
     87          1           0       -2.545225   -2.735916   -3.852534
     88          1           0        2.118799   -1.865532   -0.334499
     89          1           0       -2.389754   -1.648127    0.316136
     90          1           0        6.497652   -2.367958    4.827445
     91          8           0        4.896574   -1.375766    3.103597
     92          1           0       -6.042521   -2.445898   -0.281980
     93          1           0       -6.802316   -3.271001    1.937391
     94          1           0        5.752115   -6.506235    3.869989
     95          1           0        4.146737   -5.783796    2.131586
     96          1           0       -3.132295   -5.463491    2.349342
     97          8           0       -2.185459   -4.738332   -0.087055
     98          1           0        4.819767    3.695860    0.992922
     99          1           0        4.306981    5.723996    2.336296
    100          1           0        1.623514    7.061736   -0.742668
    101          8           0        2.087496    4.921978   -2.355712
    102          1           0       -7.223634    1.939415    3.810933
    103          8           0       -5.223676    1.369154    2.070894
    104          1           0       -6.084720    6.055525    4.278731
    105          1           0       -4.172724    5.689452    2.740842
    106          1           0       -4.635758    6.398213   -1.841915
    107          8           0       -5.405793    4.392376   -0.466596
    108          1           0       -2.443808    7.593518   -1.660428
    109          1           0       -0.737254    6.766674   -0.025961
    110          1           0       -1.244936    4.814924    1.400939
    111          1           0        4.645161    0.558597   -1.011263
    112          1           0        6.955443   -0.286002   -1.182550
    113          1           0        8.824194    1.282545   -1.737646
    114          1           0        8.294680    3.695340   -2.159640
    115          8           0        5.992013    4.804248   -2.074406
    116          1           0        5.576883   -5.022802   -2.306827
    117          8           0        5.777599   -3.495413   -0.077807
    118          1           0        3.518795   -6.152234   -3.048899
    119          1           0        1.427038   -5.946629   -1.706083
    120          1           0        1.453581   -4.623947    0.401317
    121          1           0       -4.853981   -1.005511   -2.890168
    122          1           0       -6.591514   -1.132631   -4.666586
    123          1           0       -7.514583   -3.356960   -5.319994
    124          1           0       -6.697952   -5.405437   -4.226156
    125          8           0       -4.781304   -5.459128   -2.300432
    126          1           0        6.938200   -4.795991    5.252694
    127          1           0       -5.309312   -4.770961    3.262488
    128          1           0       -7.607352    4.153472    4.822431
    129          1           0        2.686521    7.402925    1.455867
    130          6           0        5.445462    5.110984   -3.359315
    131          6           0        1.123136    5.816139   -2.888906
    132          6           0       -5.436387    3.065710   -1.004882
    133          6           0       -5.989895    0.230851    2.431610
    134          6           0       -5.279180   -6.744290   -2.631201
    135          6           0       -1.364070   -5.677476    0.584738
    136          6           0        7.008035   -3.644958   -0.768380
    137          6           0        5.473006   -0.764189    1.946060
    138          1           0        6.100899    4.741342   -4.159896
    139          1           0        5.391111    6.201201   -3.411531
    140          1           0        4.441016    4.692199   -3.479584
    141          1           0        0.845372    5.405039   -3.861247
    142          1           0        1.539392    6.823391   -3.027606
    143          1           0        0.232300    5.872881   -2.252094
    144          1           0       -6.493722    2.821757   -1.133339
    145          1           0       -4.975732    2.342940   -0.326071
    146          1           0       -4.936058    3.033578   -1.982081
    147          1           0       -5.565378   -0.605929    1.875640
    148          1           0       -7.047061    0.353678    2.159072
    149          1           0       -5.916993    0.025173    3.507355
    150          1           0       -4.728263   -7.446666   -2.003223
    151          1           0       -5.102282   -6.987034   -3.687577
    152          1           0       -6.352449   -6.830829   -2.416040
    153          1           0       -0.535452   -5.885735   -0.093440
    154          1           0       -1.904425   -6.611032    0.791163
    155          1           0       -0.970642   -5.272755    1.526565
    156          1           0        7.737960   -3.063590   -0.202291
    157          1           0        6.947010   -3.254933   -1.793015
    158          1           0        7.326269   -4.694905   -0.799251
    159          1           0        6.569878   -0.804180    1.993830
    160          1           0        5.148538    0.277912    1.960478
    161          1           0        5.135311   -1.246219    1.024905
 ---------------------------------------------------------------------

 The electronic state is 1-A.
 Alpha  occ. eigenvalues --  -19.18170 -19.17860 -19.17580 -19.17252 -19.17154
 Alpha  occ. eigenvalues --  -19.15159 -19.14847 -19.14741 -14.35810 -14.35489
 Alpha  occ. eigenvalues --  -14.35217 -14.34716 -10.24883 -10.24781 -10.24547
 Alpha  occ. eigenvalues --  -10.24374 -10.24235 -10.23998 -10.23934 -10.23809
 Alpha  occ. eigenvalues --  -10.23313 -10.23268 -10.23247 -10.23104 -10.22735
 Alpha  occ. eigenvalues --  -10.22314 -10.22146 -10.21994 -10.21935 -10.21916
 Alpha  occ. eigenvalues --  -10.21856 -10.21803 -10.21780 -10.21766 -10.21742
 Alpha  occ. eigenvalues --  -10.21566 -10.21553 -10.21439 -10.21248 -10.21225
 Alpha  occ. eigenvalues --  -10.20276 -10.18957 -10.18923 -10.18861 -10.18838
 Alpha  occ. eigenvalues --  -10.18784 -10.18732 -10.18699 -10.18588 -10.18577
 Alpha  occ. eigenvalues --  -10.18433 -10.18405 -10.18352 -10.18274 -10.18243
 Alpha  occ. eigenvalues --  -10.18241 -10.18218 -10.18186 -10.18155 -10.18122
 Alpha  occ. eigenvalues --  -10.18115 -10.18091 -10.18089 -10.18075 -10.18035
 Alpha  occ. eigenvalues --  -10.18023 -10.17996 -10.17984 -10.17942 -10.17929
 Alpha  occ. eigenvalues --  -10.17894 -10.17853 -10.17837 -10.17824 -10.17768
 Alpha  occ. eigenvalues --  -10.17682 -10.17675 -10.17667 -10.17660 -10.17641
 Alpha  occ. eigenvalues --  -10.17630 -10.17620 -10.17538 -10.17525 -10.17438
 Alpha  occ. eigenvalues --  -10.17395 -10.17356 -10.17345 -10.17307 -10.17296
 Alpha  occ. eigenvalues --  -10.17247 -10.17238 -10.17213  -1.06808  -1.06658
 Alpha  occ. eigenvalues --   -1.06382  -1.05914  -1.05757  -1.03797  -1.03572
 Alpha  occ. eigenvalues --   -1.03430  -0.95212  -0.95184  -0.94829  -0.94448
 Alpha  occ. eigenvalues --   -0.88560  -0.85693  -0.84961  -0.84802  -0.84343
 Alpha  occ. eigenvalues --   -0.84152  -0.84056  -0.83916  -0.83330  -0.83100
 Alpha  occ. eigenvalues --   -0.81906  -0.81857  -0.79154  -0.77108  -0.76056
 Alpha  occ. eigenvalues --   -0.75787  -0.75463  -0.75277  -0.75092  -0.75039
 Alpha  occ. eigenvalues --   -0.74949  -0.74521  -0.74180  -0.73930  -0.73875
 Alpha  occ. eigenvalues --   -0.73821  -0.73607  -0.73417  -0.73298  -0.73209
 Alpha  occ. eigenvalues --   -0.72837  -0.72577  -0.71546  -0.71490  -0.69911
 Alpha  occ. eigenvalues --   -0.69843  -0.69699  -0.69055  -0.68722  -0.68302
 Alpha  occ. eigenvalues --   -0.67883  -0.67248  -0.67081  -0.66784  -0.66663
 Alpha  occ. eigenvalues --   -0.63392  -0.62913  -0.62141  -0.61709  -0.61440
 Alpha  occ. eigenvalues --   -0.61134  -0.60726  -0.60372  -0.60172  -0.59516
 Alpha  occ. eigenvalues --   -0.59316  -0.59026  -0.58947  -0.58775  -0.58539
 Alpha  occ. eigenvalues --   -0.58317  -0.57851  -0.57531  -0.57306  -0.57136
 Alpha  occ. eigenvalues --   -0.56400  -0.55772  -0.55645  -0.54976  -0.53854
 Alpha  occ. eigenvalues --   -0.53674  -0.52978  -0.52962  -0.52674  -0.52067
 Alpha  occ. eigenvalues --   -0.51807  -0.51396  -0.51032  -0.50645  -0.50432
 Alpha  occ. eigenvalues --   -0.50239  -0.49464  -0.49322  -0.49130  -0.48966
 Alpha  occ. eigenvalues --   -0.48658  -0.48551  -0.48393  -0.48006  -0.47837
 Alpha  occ. eigenvalues --   -0.47588  -0.47230  -0.47068  -0.46921  -0.46711
 Alpha  occ. eigenvalues --   -0.46684  -0.46587  -0.46275  -0.46224  -0.46109
 Alpha  occ. eigenvalues --   -0.45982  -0.45883  -0.45690  -0.45479  -0.45092
 Alpha  occ. eigenvalues --   -0.44936  -0.44707  -0.44546  -0.44449  -0.44275
 Alpha  occ. eigenvalues --   -0.44238  -0.44172  -0.43979  -0.43895  -0.43679
 Alpha  occ. eigenvalues --   -0.43402  -0.43090  -0.42978  -0.42855  -0.42730
 Alpha  occ. eigenvalues --   -0.42391  -0.42284  -0.42226  -0.42139  -0.42016
 Alpha  occ. eigenvalues --   -0.41975  -0.41837  -0.41715  -0.41617  -0.41420
 Alpha  occ. eigenvalues --   -0.41302  -0.41293  -0.41173  -0.40904  -0.40818
 Alpha  occ. eigenvalues --   -0.40566  -0.40343  -0.39220  -0.38760  -0.38558
 Alpha  occ. eigenvalues --   -0.38214  -0.38025  -0.37763  -0.37720  -0.37693
 Alpha  occ. eigenvalues --   -0.37541  -0.37417  -0.37307  -0.37206  -0.36936
 Alpha  occ. eigenvalues --   -0.36711  -0.36618  -0.36568  -0.36533  -0.36070
 Alpha  occ. eigenvalues --   -0.36015  -0.35834  -0.35714  -0.35658  -0.35513
 Alpha  occ. eigenvalues --   -0.35463  -0.35416  -0.35201  -0.35089  -0.35046
 Alpha  occ. eigenvalues --   -0.34923  -0.34702  -0.34471  -0.34334  -0.34076
 Alpha  occ. eigenvalues --   -0.33398  -0.33229  -0.32999  -0.32858  -0.32676
 Alpha  occ. eigenvalues --   -0.32640  -0.32547  -0.32369  -0.32171  -0.32120
 Alpha  occ. eigenvalues --   -0.32023  -0.31943  -0.31802  -0.31595  -0.31157
 Alpha  occ. eigenvalues --   -0.31049  -0.30861  -0.30212  -0.29701  -0.28887
 Alpha  occ. eigenvalues --   -0.28342  -0.26860  -0.26656  -0.26345  -0.26022
 Alpha  occ. eigenvalues --   -0.25715  -0.25396  -0.25068  -0.24930  -0.24605
 Alpha  occ. eigenvalues --   -0.24141  -0.23529  -0.23485  -0.23291  -0.23004
 Alpha  occ. eigenvalues --   -0.22880  -0.22865  -0.22594  -0.22300  -0.22048
 Alpha  occ. eigenvalues --   -0.21821  -0.21543  -0.21312  -0.20894  -0.18508
 Alpha  occ. eigenvalues --   -0.18250  -0.16475  -0.16158
 Alpha virt. eigenvalues --   -0.02044  -0.01872  -0.01052  -0.00850  -0.00591
 Alpha virt. eigenvalues --   -0.00466  -0.00315  -0.00005   0.00320   0.00479
 Alpha virt. eigenvalues --    0.01075   0.01194   0.01390   0.01514   0.01623

 Mulliken atomic charges:
              1
     1  C   -0.273977
     2  C    0.112383
     3  C    0.072379
     4  C    0.076865
     5  C    0.129601
     6  C    0.126745
     7  C    0.070726
     8  C    0.076602
     9  C    0.111506
    10  C   -0.261005
    11  C    0.352313
    12  C   -0.184609
    13  C   -0.202267
    14  C   -0.205139
    15  C   -0.182309
    16  C    0.326518
    17  C   -0.254218
    18  C   -0.236373
    19  C    0.328457
    20  C   -0.192456
    21  C   -0.207697
    22  C   -0.209283
    23  C   -0.146780
    24  C    0.278490
    25  C   -0.237431
    26  N   -0.641056
    27  N   -0.663125
    28  N   -0.653534
    29  N   -0.649095
    30  C    0.271976
    31  C    0.222648
    32  C    0.241224
    33  C    0.242329
    34  C    0.239030
    35  C    0.186329
    36  C    0.277100
    37  C    0.207687
    38  C   -0.187797
    39  C   -0.138464
    40  C   -0.138361
    41  C   -0.175560
    42  C    0.336308
    43  C   -0.176189
    44  C   -0.148996
    45  C   -0.132065
    46  C   -0.210405
    47  C    0.385976
    48  C    0.369051
    49  C   -0.209110
    50  C   -0.132610
    51  C   -0.145126
    52  C   -0.162882
    53  C    0.367871
    54  C   -0.205551
    55  C   -0.133635
    56  C   -0.148098
    57  C   -0.168493
    58  C   -0.180431
    59  C   -0.142679
    60  C   -0.141599
    61  C   -0.174871
    62  C    0.338167
    63  C    0.376573
    64  C   -0.206273
    65  C   -0.133732
    66  C   -0.140924
    67  C   -0.173696
    68  C    0.371264
    69  C   -0.208771
    70  C   -0.135107
    71  C   -0.140218
    72  C   -0.169300
    73  C   -0.205221
    74  C   -0.144706
    75  C   -0.140956
    76  C   -0.171379
    77  C    0.322287
    78  H    0.148200
    79  H    0.140381
    80  H    0.138088
    81  H    0.126003
    82  H    0.125561
    83  H    0.139003
    84  H    0.125436
    85  H    0.130902
    86  H    0.124326
    87  H    0.137131
    88  H    0.149910
    89  H    0.147195
    90  H    0.134045
    91  O   -0.526415
    92  H    0.141535
    93  H    0.123243
    94  H    0.124353
    95  H    0.139482
    96  H    0.134004
    97  O   -0.498662
    98  H    0.140805
    99  H    0.126130
   100  H    0.131081
   101  O   -0.512848
   102  H    0.130535
   103  O   -0.510735
   104  H    0.125113
   105  H    0.143651
   106  H    0.134644
   107  O   -0.525792
   108  H    0.124360
   109  H    0.131702
   110  H    0.152828
   111  H    0.152479
   112  H    0.123917
   113  H    0.121406
   114  H    0.131375
   115  O   -0.525690
   116  H    0.133815
   117  O   -0.510359
   118  H    0.128730
   119  H    0.130920
   120  H    0.146744
   121  H    0.145431
   122  H    0.127937
   123  H    0.128191
   124  H    0.132567
   125  O   -0.501360
   126  H    0.125716
   127  H    0.126808
   128  H    0.124605
   129  H    0.124699
   130  C   -0.218896
   131  C   -0.226099
   132  C   -0.225198
   133  C   -0.228060
   134  C   -0.213898
   135  C   -0.227259
   136  C   -0.218599
   137  C   -0.216601
   138  H    0.133413
   139  H    0.154597
   140  H    0.173518
   141  H    0.168610
   142  H    0.144659
   143  H    0.167124
   144  H    0.154228
   145  H    0.186650
   146  H    0.135885
   147  H    0.186495
   148  H    0.144812
   149  H    0.151443
   150  H    0.170098
   151  H    0.150923
   152  H    0.152995
   153  H    0.178277
   154  H    0.147819
   155  H    0.161420
   156  H    0.173764
   157  H    0.155146
   158  H    0.155966
   159  H    0.132552
   160  H    0.163703
   161  H    0.172542
 Sum of Mulliken atomic charges =   0.00000

 Dipole moment (field-independent basis, Debye):
    X=             -1.5085    Y=             -5.3034    Z=             -2.6161  Tot=              6.1030
 Quadrupole moment (field-independent basis, Debye-Ang):
   XX=           -492.4822   YY=           -480.2939   ZZ=           -503.2217
   XY=              5.6974   XZ=             -6.8408   YZ=             -2.6314

 Normal termination of Gaussian 09 at Thu Aug  7 13:17:38 2014.
