 Gaussian 09, Revision A.02,
 Gaussian 09:  EM64L-G09RevA.02 11-Jun-2009

 -------------------
 #p opt b3lyp/6-31g*
 -------------------

 ----------
 Auto Spiro
 ----------
 Symbolic Z-matrix:
 Charge =  0 Multiplicity = 1

 SCF Done:  E(RB3LYP) =  -4406.38919236     A.U. after   15 cycles
 SCF Done:  E(RB3LYP) =  -4406.34605048     A.U. after   13 cycles
 SCF Done:  E(RB3LYP) =  -4406.38963854     A.U. after   13 cycles
 SCF Done:  E(RB3LYP) =  -4406.39120502     A.U. after   13 cycles
 SCF Done:  E(RB3LYP) =  -4406.38804128     A.U. after   14 cycles
 SCF Done:  E(RB3LYP) =  -4406.39153040     A.U. after   13 cycles
 SCF Done:  E(RB3LYP) =  -4406.39132027     A.U. after   12 cycles
 SCF Done:  E(RB3LYP) =  -4406.39151426     A.U. after   10 cycles
 SCF Done:  E(RB3LYP) =  -4406.39167847     A.U. after   12 cycles
 SCF Done:  E(RB3LYP) =  -4406.39181754     A.U. after   11 cycles
 SCF Done:  E(RB3LYP) =  -4406.39184125     A.U. after   10 cycles
 SCF Done:  E(RB3LYP) =  -4406.39185337     A.U. after   10 cycles
 SCF Done:  E(RB3LYP) =  -4406.39185855     A.U. after   10 cycles
 SCF Done:  E(RB3LYP) =  -4406.39186253     A.U. after    9 cycles
 SCF Done:  E(RB3LYP) =  -4406.39186406     A.U. after    9 cycles
 SCF Done:  E(RB3LYP) =  -4406.39186462     A.U. after    7 cycles
 SCF Done:  E(RB3LYP) =  -4406.39186480     A.U. after    7 cycles
 SCF Done:  E(RB3LYP) =  -4406.39186493     A.U. after    7 cycles
 SCF Done:  E(RB3LYP) =  -4406.39186498     A.U. after    6 cycles
 SCF Done:  E(RB3LYP) =  -4406.39186502     A.U. after    6 cycles
 Optimization completed.
    -- Stationary point found.

                         Standard orientation:
 ---------------------------------------------------------------------
 Center     Atomic      Atomic             Coordinates (Angstroms)
 Number     Number       Type             X           Y           Z
 ---------------------------------------------------------------------
      1          6           0       -0.059352    0.221691    0.141608
      2          6           0       -0.847829    1.120118    1.104247
      3          6           0       -0.631856    0.719130    2.438920
      4          6           0        0.362018   -0.356917    2.452526
      5          6           0        0.724379   -0.654543    1.124824
      6          6           0       -1.005466   -0.587244   -0.762209
      7          6           0       -0.731401   -0.330294   -2.117810
      8          6           0        0.410540    0.580811   -2.202810
      9          6           0        0.819124    0.926423   -0.898047
     10          6           0       -2.021671   -1.451600   -0.385547
     11          6           0       -2.787451   -2.087106   -1.380810
     12          6           0       -2.514760   -1.826159   -2.737458
     13          6           0       -1.498856   -0.949310   -3.107878
     14          6           0        0.963335   -1.055782    3.501856
     15          6           0        1.913562   -2.034273    3.219102
     16          6           0        2.289783   -2.319182    1.892113
     17          6           0        1.679708   -1.614601    0.835952
     18          6           0       -1.747561    2.130620    0.799560
     19          6           0       -2.467323    2.744752    1.840040
     20          6           0       -2.261841    2.335344    3.168525
     21          6           0       -1.345349    1.330233    3.473449
     22          6           0        1.123024    1.054852   -3.306788
     23          6           0        2.252667    1.841035   -3.099030
     24          6           0        2.683509    2.160021   -1.799041
     25          6           0        1.942203    1.715718   -0.688466
     26          7           0       -3.809234   -3.004052   -1.014873
     27          7           0        3.290727   -3.288180    1.627293
     28          7           0       -3.419256    3.764871    1.541965
     29          7           0        3.897028    2.886058   -1.624842
     30          6           0        5.082277    2.392055   -2.231559
     31          6           0       -2.981515    4.953188    0.901191
     32          6           0        3.910764    4.069868   -0.840859
     33          6           0       -4.776270    3.583871    1.915164
     34          6           0       -3.532402   -3.972306   -0.002705
     35          6           0       -5.064004   -2.994914   -1.669245
     36          6           0        4.431193   -3.373654    2.480235
     37          6           0        3.199005   -4.135794    0.494509
     38          6           0        4.858213   -4.608311    2.978539
     39          6           0        5.981551   -4.704138    3.802651
     40          6           0        6.683825   -3.547660    4.160332
     41          6           0        6.254508   -2.303960    3.673293
     42          6           0        5.150624   -2.220069    2.836612
     43          6           0       -4.422052   -4.178174    1.055985
     44          6           0       -4.161565   -5.133840    2.040883
     45          6           0       -2.982082   -5.885187    1.987902
     46          6           0       -2.078422   -5.674885    0.935800
     47          6           0       -2.354614   -4.737350   -0.049872
     48          6           0       -5.758925   -4.194513   -1.882604
     49          6           0       -7.001876   -4.172081   -2.516811
     50          6           0       -7.570269   -2.972193   -2.967025
     51          6           0       -6.858564   -1.783283   -2.752369
     52          6           0       -5.624112   -1.783577   -2.101743
     53          6           0        4.345360   -4.432613   -0.255403
     54          6           0        4.246861   -5.269623   -1.368334
     55          6           0        3.017786   -5.819905   -1.758536
     56          6           0        1.882563   -5.510587   -0.995684
     57          6           0        1.963252   -4.683792    0.125167
     58          6           0       -1.787295    5.554457    1.321709
     59          6           0       -1.349784    6.724235    0.689877
     60          6           0       -2.091618    7.295933   -0.345532
     61          6           0       -3.284298    6.690291   -0.749777
     62          6           0       -3.737803    5.515626   -0.138404
     63          6           0       -5.376736    2.320806    1.840560
     64          6           0       -6.703851    2.125792    2.230552
     65          6           0       -7.466116    3.206671    2.683547
     66          6           0       -6.876368    4.477101    2.752254
     67          6           0       -5.550800    4.661423    2.385780
     68          6           0        2.857419    4.997461   -0.929648
     69          6           0        2.864671    6.159876   -0.170307
     70          6           0        3.935660    6.435424    0.691770
     71          6           0        4.991252    5.522785    0.788384
     72          6           0        4.967232    4.346976    0.035624
     73          6           0        5.307983    1.007785   -2.270729
     74          6           0        6.465365    0.516936   -2.886766
     75          6           0        7.403577    1.390669   -3.441435
     76          6           0        7.172646    2.767077   -3.385153
     77          6           0        6.012618    3.280456   -2.793198
     78          1           0        2.282495    1.956904    0.314406
     79          1           0       -1.926037    2.438258   -0.226730
     80          1           0       -2.831075    2.817013    3.957981
     81          1           0       -1.193604    1.030084    4.507214
     82          1           0        0.694544   -0.850736    4.535080
     83          1           0        2.379618   -2.586257    4.028618
     84          1           0        0.814011    0.805110   -4.318583
     85          1           0        2.832404    2.201782   -3.942961
     86          1           0       -1.299919   -0.769080   -4.161350
     87          1           0       -3.107082   -2.323802   -3.498286
     88          1           0        1.967153   -1.822051   -0.189571
     89          1           0       -2.232334   -1.646945    0.661384
     90          8           0        3.854229    7.611117    1.394722
     91          6           0        4.925908    7.944358    2.260151
     92          8           0       -8.775707    3.132608    3.079137
     93          6           0       -9.413565    1.869348    3.025897
     94          8           0        7.786419   -3.521822    4.967312
     95          8           0       -2.623913   -6.839345    2.900083
     96          6           0       -3.495094   -7.079848    3.991334
     97          6           0        8.264526   -4.751613    5.485594
     98          1           0        6.813650   -1.416215    3.952059
     99          1           0        4.833331   -1.254741    2.454448
    100          1           0       -5.334227   -3.591665    1.107238
    101          1           0       -4.876565   -5.270334    2.844192
    102          1           0        6.286390   -5.678778    4.166365
    103          1           0        4.309243   -5.506914    2.714377
    104          1           0       -1.168550   -6.264590    0.892405
    105          1           0       -1.646087   -4.594143   -0.859214
    106          1           0        5.785549    3.639870    0.125719
    107          1           0        5.828662    5.702076    1.453469
    108          1           0        2.046264    6.869686   -0.237665
    109          1           0        2.028209    4.802096   -1.602312
    110          1           0       -7.129012    1.131003    2.159104
    111          1           0       -4.801259    1.476287    1.475142
    112          1           0       -7.474106    5.308130    3.114404
    113          1           0       -5.104592    5.647759    2.460387
    114          1           0       -8.916745    1.135802    3.675796
    115          1           0       -9.445893    1.473314    2.001553
    116          1           0      -10.433374    2.031317    3.381047
    117          1           0       -4.481000   -7.428634    3.654599
    118          1           0       -3.625678   -6.182490    4.611324
    119          1           0       -3.021540   -7.862585    4.587258
    120          1           0        9.139402   -4.503005    6.089328
    121          1           0        8.562095   -5.440590    4.683612
    122          1           0        7.514530   -5.242572    6.120427
    123          1           0        5.874615    8.031858    1.713552
    124          1           0        5.043938    7.205482    3.064598
    125          1           0        4.671404    8.912597    2.695732
    126          8           0       -3.940942    7.319946   -1.770452
    127          1           0       -4.649820    5.025820   -0.452928
    128          1           0       -1.752842    8.207417   -0.823955
    129          8           0       -0.208440    7.391497    1.038636
    130          1           0       -1.232244    5.109615    2.136387
    131          1           0        4.586488    0.342476   -1.816955
    132          8           0        6.771448   -0.811023   -2.975288
    133          1           0        8.302532    1.005470   -3.908095
    134          8           0        8.140707    3.545181   -3.958387
    135          1           0        5.812838    4.343177   -2.767425
    136          8           0        5.419903   -5.481138   -2.042153
    137          1           0        5.312125   -4.023386    0.011601
    138          1           0        2.946653   -6.462189   -2.624280
    139          8           0        0.632401   -5.998060   -1.270461
    140          1           0        1.065583   -4.479617    0.696364
    141          1           0       -5.119681   -0.839469   -1.936971
    142          8           0       -7.313281   -0.550957   -3.135643
    143          1           0       -8.529466   -2.963499   -3.463921
    144          8           0       -7.595850   -5.395150   -2.674323
    145          1           0       -5.348683   -5.146229   -1.568668
    146          6           0        7.976557    4.952814   -3.931012
    147          6           0        5.401898   -6.310310   -3.192413
    148          6           0       -8.840403   -5.461668   -3.346915
    149          6           0       -5.167153    6.769857   -2.221782
    150          1           0        8.863752    5.366457   -4.414900
    151          1           0        7.912594    5.334305   -2.903288
    152          1           0        7.082618    5.268629   -4.485423
    153          1           0        6.429662   -6.334359   -3.559358
    154          1           0        4.748110   -5.903652   -3.975473
    155          1           0        5.081069   -7.332056   -2.949258
    156          1           0       -9.113351   -6.518696   -3.367996
    157          1           0       -8.766539   -5.087386   -4.377041
    158          1           0       -9.620529   -4.899069   -2.816042
    159          1           0       -5.519168    7.434650   -3.013261
    160          1           0       -5.915351    6.733487   -1.418914
    161          1           0       -5.032291    5.759874   -2.631416
    162          6           0        0.469076   -6.884799   -2.365733
    163          1           0       -0.589628   -7.149288   -2.378418
    164          1           0        1.069567   -7.795450   -2.240225
    165          1           0        0.733530   -6.404752   -3.317101
    166          6           0        5.866005   -1.748831   -2.410516
    167          1           0        6.294338   -2.736531   -2.588863
    168          1           0        4.877693   -1.692534   -2.885016
    169          1           0        5.750741   -1.597625   -1.329582
    170          6           0        0.484965    6.969911    2.207241
    171          1           0        1.344931    7.634160    2.298476
    172          1           0        0.846309    5.938859    2.113524
    173          1           0       -0.154095    7.053270    3.096208
    174          6           0       -8.572118   -0.462962   -3.778437
    175          1           0       -8.729922    0.597722   -3.983804
    176          1           0       -9.383854   -0.830566   -3.135868
    177          1           0       -8.584764   -1.019148   -4.725671
 ---------------------------------------------------------------------

 The electronic state is 1-A.
 Alpha  occ. eigenvalues --  -19.17957 -19.17856 -19.17558 -19.17270 -19.17249
 Alpha  occ. eigenvalues --  -19.17228 -19.17151 -19.16832 -19.16434 -19.16418
 Alpha  occ. eigenvalues --  -19.16309 -19.16089 -14.35766 -14.35353 -14.34972
 Alpha  occ. eigenvalues --  -14.34725 -10.24825 -10.24803 -10.24368 -10.24271
 Alpha  occ. eigenvalues --  -10.24259 -10.24234 -10.24165 -10.24004 -10.23949
 Alpha  occ. eigenvalues --  -10.23900 -10.23859 -10.23750 -10.23721 -10.23631
 Alpha  occ. eigenvalues --  -10.23513 -10.23490 -10.23462 -10.23405 -10.23388
 Alpha  occ. eigenvalues --  -10.23344 -10.22983 -10.22947 -10.22742 -10.22368
 Alpha  occ. eigenvalues --  -10.22364 -10.22168 -10.22123 -10.22059 -10.21940
 Alpha  occ. eigenvalues --  -10.21859 -10.21856 -10.21850 -10.21791 -10.21419
 Alpha  occ. eigenvalues --  -10.21357 -10.21327 -10.20906 -10.18898 -10.18876
 Alpha  occ. eigenvalues --  -10.18826 -10.18801 -10.18793 -10.18724 -10.18714
 Alpha  occ. eigenvalues --  -10.18620 -10.18522 -10.18502 -10.18497 -10.18408
 Alpha  occ. eigenvalues --  -10.18381 -10.18345 -10.18333 -10.18311 -10.18271
 Alpha  occ. eigenvalues --  -10.18248 -10.18231 -10.18227 -10.18219 -10.18192
 Alpha  occ. eigenvalues --  -10.18120 -10.18111 -10.18086 -10.18056 -10.18014
 Alpha  occ. eigenvalues --  -10.18007 -10.17947 -10.17940 -10.17914 -10.17887
 Alpha  occ. eigenvalues --  -10.17831 -10.17796 -10.17632 -10.17602 -10.17594
 Alpha  occ. eigenvalues --  -10.17485 -10.17206 -10.17098 -10.16613 -10.16591
 Alpha  occ. eigenvalues --  -10.16581 -10.16546 -10.16503 -10.16413 -10.16034
 Alpha  occ. eigenvalues --  -10.15905  -1.06410  -1.06233  -1.06124  -1.05917
 Alpha  occ. eigenvalues --   -1.05739  -1.05700  -1.05626  -1.05351  -1.05031
 Alpha  occ. eigenvalues --   -1.05002  -1.04680  -1.04605  -0.95723  -0.95283
 Alpha  occ. eigenvalues --   -0.95028  -0.94886  -0.89286  -0.86367  -0.84926
 Alpha  occ. eigenvalues --   -0.84389  -0.84319  -0.84225  -0.83972  -0.83908
 Alpha  occ. eigenvalues --   -0.83195  -0.82888  -0.81993  -0.81900  -0.79688
 Alpha  occ. eigenvalues --   -0.77556  -0.76420  -0.76086  -0.75729  -0.75598
 Alpha  occ. eigenvalues --   -0.75300  -0.75254  -0.75118  -0.74846  -0.74559
 Alpha  occ. eigenvalues --   -0.74277  -0.73992  -0.73891  -0.73774  -0.73749
 Alpha  occ. eigenvalues --   -0.73659  -0.73562  -0.73421  -0.73075  -0.72327
 Alpha  occ. eigenvalues --   -0.72007  -0.71648  -0.71259  -0.70454  -0.70386
 Alpha  occ. eigenvalues --   -0.69281  -0.69253  -0.68530  -0.68484  -0.68118
 Alpha  occ. eigenvalues --   -0.67906  -0.67791  -0.67673  -0.67454  -0.66554
 Alpha  occ. eigenvalues --   -0.66529  -0.63736  -0.62909  -0.61976  -0.61610
 Alpha  occ. eigenvalues --   -0.61535  -0.60822  -0.60545  -0.60312  -0.59968
 Alpha  occ. eigenvalues --   -0.59895  -0.59552  -0.59350  -0.59145  -0.58615
 Alpha  occ. eigenvalues --   -0.58345  -0.57851  -0.57793  -0.57715  -0.57016
 Alpha  occ. eigenvalues --   -0.56928  -0.56142  -0.55790  -0.55739  -0.55049
 Alpha  occ. eigenvalues --   -0.54298  -0.53774  -0.53267  -0.53174  -0.53087
 Alpha  occ. eigenvalues --   -0.52844  -0.52634  -0.52254  -0.51786  -0.51345
 Alpha  occ. eigenvalues --   -0.51237  -0.50283  -0.50054  -0.49887  -0.49380
 Alpha  occ. eigenvalues --   -0.49260  -0.49082  -0.48677  -0.48439  -0.48345
 Alpha  occ. eigenvalues --   -0.48237  -0.48011  -0.47938  -0.47839  -0.47701
 Alpha  occ. eigenvalues --   -0.47619  -0.47476  -0.47381  -0.47269  -0.47188
 Alpha  occ. eigenvalues --   -0.47093  -0.47015  -0.46747  -0.46654  -0.46638
 Alpha  occ. eigenvalues --   -0.46529  -0.46459  -0.46353  -0.46315  -0.46263
 Alpha  occ. eigenvalues --   -0.46249  -0.46048  -0.45688  -0.45644  -0.45442
 Alpha  occ. eigenvalues --   -0.45146  -0.45036  -0.44932  -0.44612  -0.44066
 Alpha  occ. eigenvalues --   -0.43919  -0.43871  -0.43617  -0.43510  -0.43473
 Alpha  occ. eigenvalues --   -0.43117  -0.42987  -0.42909  -0.42839  -0.42752
 Alpha  occ. eigenvalues --   -0.42442  -0.42406  -0.42316  -0.42050  -0.41833
 Alpha  occ. eigenvalues --   -0.41722  -0.41579  -0.41506  -0.41294  -0.41142
 Alpha  occ. eigenvalues --   -0.41003  -0.40885  -0.40527  -0.40473  -0.40150
 Alpha  occ. eigenvalues --   -0.39912  -0.39341  -0.39298  -0.39121  -0.39082
 Alpha  occ. eigenvalues --   -0.38746  -0.38349  -0.38312  -0.38139  -0.37894
 Alpha  occ. eigenvalues --   -0.37839  -0.37584  -0.37511  -0.37450  -0.37350
 Alpha  occ. eigenvalues --   -0.37332  -0.37232  -0.37099  -0.37030  -0.36988
 Alpha  occ. eigenvalues --   -0.36854  -0.36801  -0.36516  -0.36349  -0.36236
 Alpha  occ. eigenvalues --   -0.36174  -0.36047  -0.35665  -0.35574  -0.35510
 Alpha  occ. eigenvalues --   -0.35176  -0.35074  -0.34828  -0.34733  -0.34407
 Alpha  occ. eigenvalues --   -0.34171  -0.33964  -0.33842  -0.33637  -0.33527
 Alpha  occ. eigenvalues --   -0.33044  -0.32982  -0.32802  -0.32702  -0.32646
 Alpha  occ. eigenvalues --   -0.32580  -0.32505  -0.32354  -0.32278  -0.32143
 Alpha  occ. eigenvalues --   -0.32007  -0.31964  -0.31903  -0.31867  -0.31754
 Alpha  occ. eigenvalues --   -0.31543  -0.31463  -0.31404  -0.31119  -0.30772
 Alpha  occ. eigenvalues --   -0.30309  -0.30057  -0.28831  -0.28520  -0.26415
 Alpha  occ. eigenvalues --   -0.26173  -0.25683  -0.25155  -0.24965  -0.24787
 Alpha  occ. eigenvalues --   -0.24473  -0.24338  -0.24229  -0.23943  -0.23775
 Alpha  occ. eigenvalues --   -0.23389  -0.22960  -0.22610  -0.22006  -0.21462
 Alpha  occ. eigenvalues --   -0.21427  -0.21227  -0.20613  -0.20306  -0.20195
 Alpha  occ. eigenvalues --   -0.20046  -0.17642  -0.17436  -0.16223  -0.16083
 Alpha virt. eigenvalues --   -0.02808  -0.02687  -0.01228  -0.01076  -0.00301
 Alpha virt. eigenvalues --    0.00024   0.00160   0.00654   0.00695   0.00769
 Alpha virt. eigenvalues --    0.00815   0.00899   0.01347   0.01949   0.02191

 Mulliken atomic charges:
              1
     1  C   -0.272344
     2  C    0.120307
     3  C    0.076299
     4  C    0.073023
     5  C    0.122173
     6  C    0.129579
     7  C    0.074567
     8  C    0.070928
     9  C    0.113690
    10  C   -0.241034
    11  C    0.288248
    12  C   -0.171152
    13  C   -0.202535
    14  C   -0.202871
    15  C   -0.180070
    16  C    0.300091
    17  C   -0.243145
    18  C   -0.222769
    19  C    0.253485
    20  C   -0.164086
    21  C   -0.205912
    22  C   -0.204182
    23  C   -0.162522
    24  C    0.258560
    25  C   -0.225398
    26  N   -0.671008
    27  N   -0.669458
    28  N   -0.660530
    29  N   -0.661168
    30  C    0.298992
    31  C    0.293355
    32  C    0.293489
    33  C    0.300634
    34  C    0.267019
    35  C    0.319145
    36  C    0.261269
    37  C    0.304137
    38  C   -0.162464
    39  C   -0.205855
    40  C    0.380351
    41  C   -0.184060
    42  C   -0.160085
    43  C   -0.159871
    44  C   -0.206048
    45  C    0.381421
    46  C   -0.197391
    47  C   -0.172281
    48  C   -0.250476
    49  C    0.387086
    50  C   -0.289065
    51  C    0.386342
    52  C   -0.248534
    53  C   -0.248218
    54  C    0.386932
    55  C   -0.280342
    56  C    0.385358
    57  C   -0.241826
    58  C   -0.256971
    59  C    0.389228
    60  C   -0.239130
    61  C    0.385061
    62  C   -0.256072
    63  C   -0.185580
    64  C   -0.204970
    65  C    0.375127
    66  C   -0.185558
    67  C   -0.172779
    68  C   -0.178783
    69  C   -0.198721
    70  C    0.370240
    71  C   -0.204238
    72  C   -0.177589
    73  C   -0.267232
    74  C    0.391227
    75  C   -0.240436
    76  C    0.386433
    77  C   -0.264604
    78  H    0.145978
    79  H    0.148784
    80  H    0.138335
    81  H    0.129210
    82  H    0.128962
    83  H    0.141279
    84  H    0.130107
    85  H    0.141954
    86  H    0.128802
    87  H    0.141485
    88  H    0.150583
    89  H    0.149986
    90  O   -0.513293
    91  C   -0.213481
    92  O   -0.512200
    93  C   -0.211640
    94  O   -0.508619
    95  O   -0.509117
    96  C   -0.212785
    97  C   -0.214264
    98  H    0.141240
    99  H    0.146845
   100  H    0.140372
   101  H    0.130035
   102  H    0.133038
   103  H    0.144556
   104  H    0.151578
   105  H    0.157191
   106  H    0.145071
   107  H    0.130112
   108  H    0.167438
   109  H    0.148071
   110  H    0.131722
   111  H    0.146161
   112  H    0.135407
   113  H    0.144856
   114  H    0.148524
   115  H    0.149193
   116  H    0.165134
   117  H    0.149252
   118  H    0.150461
   119  H    0.167097
   120  H    0.169447
   121  H    0.151870
   122  H    0.150595
   123  H    0.150358
   124  H    0.149237
   125  H    0.167883
   126  O   -0.515228
   127  H    0.140460
   128  H    0.138066
   129  O   -0.522380
   130  H    0.138805
   131  H    0.143210
   132  O   -0.518596
   133  H    0.136190
   134  O   -0.515816
   135  H    0.140175
   136  O   -0.516272
   137  H    0.148627
   138  H    0.130659
   139  O   -0.513875
   140  H    0.158773
   141  H    0.147185
   142  O   -0.511708
   143  H    0.126251
   144  O   -0.512949
   145  H    0.144857
   146  C   -0.211273
   147  C   -0.213212
   148  C   -0.209838
   149  C   -0.212456
   150  H    0.164687
   151  H    0.151522
   152  H    0.151435
   153  H    0.172279
   154  H    0.151755
   155  H    0.150292
   156  H    0.167713
   157  H    0.148774
   158  H    0.147510
   159  H    0.164658
   160  H    0.153248
   161  H    0.152345
   162  C   -0.215071
   163  H    0.176422
   164  H    0.150855
   165  H    0.152143
   166  C   -0.223300
   167  H    0.175699
   168  H    0.152124
   169  H    0.153606
   170  C   -0.227484
   171  H    0.181852
   172  H    0.159932
   173  H    0.145693
   174  C   -0.209785
   175  H    0.168736
   176  H    0.147148
   177  H    0.148318
 Sum of Mulliken atomic charges =   0.00000

 Dipole moment (field-independent basis, Debye):
    X=             -3.0619    Y=             -6.3358    Z=              0.9199  Tot=              7.0967
 Quadrupole moment (field-independent basis, Debye-Ang):
   XX=           -512.1679   YY=           -537.2040   ZZ=           -532.6106
   XY=             18.1683   XZ=             35.5588   YZ=              8.0598

 Normal termination of Gaussian 09 at Thu Aug  7 18:19:31 2014.
