 Gaussian 09, Revision A.02,
 Gaussian 09:  EM64L-G09RevA.02 11-Jun-2009

 -------------------
 #p opt b3lyp/6-31g*
 -------------------

 ----------
 Auto Spiro
 ----------
 Symbolic Z-matrix:
 Charge =  0 Multiplicity = 1

 SCF Done:  E(RB3LYP) =  -3948.29956349     A.U. after   15 cycles
 SCF Done:  E(RB3LYP) =  -3948.30052420     A.U. after   16 cycles
 SCF Done:  E(RB3LYP) =  -3948.29976055     A.U. after   12 cycles
 SCF Done:  E(RB3LYP) =  -3948.30102841     A.U. after   12 cycles
 SCF Done:  E(RB3LYP) =  -3948.30131583     A.U. after   16 cycles
 SCF Done:  E(RB3LYP) =  -3948.30134330     A.U. after   16 cycles
 SCF Done:  E(RB3LYP) =  -3948.30136508     A.U. after   10 cycles
 SCF Done:  E(RB3LYP) =  -3948.30138438     A.U. after   10 cycles
 SCF Done:  E(RB3LYP) =  -3948.30140563     A.U. after   10 cycles
 SCF Done:  E(RB3LYP) =  -3948.30144190     A.U. after   16 cycles
 SCF Done:  E(RB3LYP) =  -3948.30144007     A.U. after    9 cycles
 SCF Done:  E(RB3LYP) =  -3948.30143705     A.U. after   10 cycles
 SCF Done:  E(RB3LYP) =  -3948.30144081     A.U. after    9 cycles
 SCF Done:  E(RB3LYP) =  -3948.30144014     A.U. after    9 cycles
 SCF Done:  E(RB3LYP) =  -3948.30143654     A.U. after   22 cycles
 SCF Done:  E(RB3LYP) =  -3948.30143629     A.U. after    6 cycles
 SCF Done:  E(RB3LYP) =  -3948.30143606     A.U. after    7 cycles
 SCF Done:  E(RB3LYP) =  -3948.30143626     A.U. after    7 cycles
 SCF Done:  E(RB3LYP) =  -3948.30143673     A.U. after    6 cycles
 SCF Done:  E(RB3LYP) =  -3948.30143691     A.U. after    6 cycles
 Optimization completed.
    -- Stationary point found.

                         Standard orientation:
 ---------------------------------------------------------------------
 Center     Atomic      Atomic             Coordinates (Angstroms)
 Number     Number       Type             X           Y           Z
 ---------------------------------------------------------------------
      1          6           0       -0.044978   -0.030016   -0.113100
      2          6           0        0.722977   -0.921813    0.869724
      3          6           0        0.412972   -0.573761    2.199242
      4          6           0       -0.552392    0.527180    2.185568
      5          6           0       -0.834772    0.866458    0.847817
      6          6           0        0.859758    0.748170   -1.075572
      7          6           0        0.536319    0.445077   -2.412626
      8          6           0       -0.568733   -0.515585   -2.424020
      9          6           0       -0.925418   -0.812519   -1.094359
     10          6           0        1.883980    1.628013   -0.763846
     11          6           0        2.605637    2.241265   -1.805674
     12          6           0        2.272294    1.949288   -3.142161
     13          6           0        1.252825    1.050600   -3.447895
     14          6           0       -1.181563    1.225860    3.218597
     15          6           0       -2.071062    2.252328    2.910189
     16          6           0       -2.360093    2.586904    1.572999
     17          6           0       -1.731866    1.874293    0.532799
     18          6           0        1.625305   -1.932878    0.580544
     19          6           0        2.231349   -2.637514    1.638540
     20          6           0        1.914796   -2.295034    2.966872
     21          6           0        1.019426   -1.266104    3.250048
     22          6           0       -1.259251   -1.126347   -3.473902
     23          6           0       -2.285074   -2.024096   -3.189704
     24          6           0       -2.651071   -2.311600   -1.860211
     25          6           0       -1.956557   -1.691670   -0.803734
     26          7           0        3.650946    3.156670   -1.508690
     27          7           0       -3.289841    3.619404    1.284229
     28          7           0        3.167989   -3.672872    1.375218
     29          7           0       -3.699695   -3.228581   -1.587511
     30          6           0       -4.882269   -3.228401   -2.373662
     31          6           0        2.949035   -4.606341    0.330230
     32          6           0       -3.566290   -4.151299   -0.510010
     33          6           0        4.349998   -3.760392    2.167312
     34          6           0        3.468650    4.108841   -0.463568
     35          6           0        4.860506    3.134884   -2.247580
     36          6           0       -4.470105    3.735047    2.077546
     37          6           0       -3.071912    4.519695    0.210611
     38          6           0       -4.852715    4.966604    2.618475
     39          6           0       -6.012703    5.088329    3.386555
     40          6           0       -6.798543    3.959727    3.645509
     41          6           0       -6.414906    2.718619    3.116181
     42          6           0       -5.273090    2.610744    2.334824
     43          6           0        4.464658    4.324604    0.494444
     44          6           0        4.296290    5.265477    1.512560
     45          6           0        3.103887    5.992148    1.600731
     46          6           0        2.094049    5.771739    0.652311
     47          6           0        2.278527    4.851236   -0.370226
     48          6           0        5.520728    4.328325   -2.559398
     49          6           0        6.727935    4.310119   -3.267994
     50          6           0        7.282201    3.097946   -3.694765
     51          6           0        6.607541    1.911458   -3.388027
     52          6           0        5.419056    1.911757   -2.669214
     53          6           0       -4.149061    4.970445   -0.559406
     54          6           0       -3.946686    5.880152   -1.604148
     55          6           0       -2.659410    6.337361   -1.906998
     56          6           0       -1.588202    5.871739   -1.137171
     57          6           0       -1.774365    4.983015   -0.085643
     58          6           0        1.659645   -5.079102    0.046923
     59          6           0        1.477192   -6.001612   -0.985033
     60          6           0        2.549858   -6.478255   -1.730080
     61          6           0        3.839812   -6.009612   -1.441979
     62          6           0        4.040766   -5.071902   -0.426617
     63          6           0        5.134803   -2.628655    2.411593
     64          6           0        6.284822   -2.703225    3.201022
     65          6           0        6.680291   -3.931534    3.741982
     66          6           0        5.904520   -5.073749    3.492666
     67          6           0        4.750848   -4.986789    2.726461
     68          6           0       -2.379187   -4.884691   -0.335141
     69          6           0       -2.248175   -5.783431    0.714498
     70          6           0       -3.308301   -5.991345    1.609703
     71          6           0       -4.497394   -5.273665    1.440678
     72          6           0       -4.613200   -4.354258    0.395630
     73          6           0       -5.459687   -2.024661   -2.799271
     74          6           0       -6.622072   -2.054396   -3.572177
     75          6           0       -7.231635   -3.255862   -3.914833
     76          6           0       -6.656794   -4.460543   -3.482884
     77          6           0       -5.483531   -4.451340   -2.725656
     78          1           0       -2.234951   -1.904703    0.223631
     79          1           0        1.870168   -2.185008   -0.446483
     80          1           0        2.379867   -2.846692    3.777451
     81          1           0        0.790471   -1.021690    4.284329
     82          1           0       -0.975622    0.987606    4.259150
     83          1           0       -2.553073    2.808346    3.707590
     84          1           0       -0.995178   -0.921956   -4.508451
     85          1           0       -2.815706   -2.513539   -3.999761
     86          1           0        1.014103    0.841416   -4.487627
     87          1           0        2.823179    2.435432   -3.940771
     88          1           0       -1.957061    2.116702   -0.500918
     89          1           0        2.136697    1.847219    0.268943
     90          8           0       -3.081350   -6.907104    2.598941
     91          6           0       -4.113770   -7.141085    3.541279
     92          8           0        7.789672   -4.123387    4.517971
     93          6           0        8.606606   -3.000975    4.803893
     94          8           0       -7.944016    3.960086    4.391963
     95          8           0        2.828380    6.928384    2.558018
     96          6           0        3.812703    7.181852    3.545550
     97          6           0       -8.378205    5.189469    4.947888
     98          1           0       -7.038061    1.852957    3.318239
     99          1           0       -4.990890    1.648732    1.918402
    100          1           0        5.388185    3.756806    0.439285
    101          1           0        5.093462    5.408485    2.233243
    102          1           0       -6.281026    6.060218    3.784873
    103          1           0       -4.240864    5.843419    2.430264
    104          1           0        1.175278    6.345118    0.729693
    105          1           0        1.493826    4.693337   -1.103716
    106          1           0       -5.534024   -3.791421    0.278566
    107          1           0       -5.331904   -5.405128    2.120179
    108          1           0       -1.332470   -6.349822    0.854757
    109          1           0       -1.554890   -4.737387   -1.026195
    110          1           0        6.865033   -1.803512    3.371912
    111          1           0        4.839522   -1.674874    1.985261
    112          1           0        6.217782   -6.018561    3.926147
    113          1           0        4.149415   -5.873296    2.550783
    114          1           0        8.052147   -2.224947    5.348776
    115          1           0        9.029204   -2.563601    3.889116
    116          1           0        9.418001   -3.372356    5.432791
    117          1           0        4.745751    7.554527    3.101393
    118          1           0        4.031825    6.283731    4.138766
    119          1           0        3.392974    7.950056    4.197858
    120          1           0       -9.296796    4.964706    5.493332
    121          1           0       -8.592908    5.933143    4.168498
    122          1           0       -7.636406    5.603963    5.643973
    123          1           0       -5.022419   -7.527269    3.059525
    124          1           0       -4.364849   -6.230249    4.101406
    125          1           0       -3.725777   -7.892571    4.231563
    126          8           0        4.841194   -6.518742   -2.220868
    127          1           0        5.028857   -4.688336   -0.208124
    128          1           0        2.419095   -7.203566   -2.526161
    129          1           0        0.476711   -6.369432   -1.198859
    130          1           0        0.814734   -4.729870    0.629913
    131          1           0       -5.004768   -1.080075   -2.522424
    132          1           0       -7.067577   -1.117871   -3.897407
    133          1           0       -8.141069   -3.290133   -4.505500
    134          8           0       -7.310163   -5.598170   -3.867552
    135          1           0       -5.018579   -5.373400   -2.401349
    136          8           0       -5.078039    6.249140   -2.278442
    137          1           0       -5.157467    4.625276   -0.362118
    138          1           0       -2.481975    7.038243   -2.713780
    139          1           0       -0.586403    6.231090   -1.359377
    140          1           0       -0.931251    4.647509    0.507886
    141          1           0        4.921772    0.979623   -2.425662
    142          1           0        7.034332    0.964085   -3.707512
    143          1           0        8.213022    3.064191   -4.248000
    144          8           0        7.278540    5.539604   -3.506067
    145          1           0        5.111845    5.285953   -2.258026
    146          6           0       -6.779729   -6.849063   -3.462328
    147          6           0       -4.942106    7.133354   -3.377804
    148          6           0        8.480441    5.600417   -4.254552
    149          6           0        6.170254   -6.090928   -1.974311
    150          1           0       -7.457708   -7.605394   -3.862751
    151          1           0       -6.741680   -6.938303   -2.368465
    152          1           0       -5.773224   -7.013562   -3.869815
    153          1           0       -5.949928    7.278940   -3.771710
    154          1           0       -4.303935    6.707570   -4.163684
    155          1           0       -4.531002    8.104076   -3.069391
    156          1           0        8.729272    6.660336   -4.336507
    157          1           0        8.353215    5.179486   -5.261018
    158          1           0        9.301185    5.074822   -3.747945
    159          1           0        6.795732   -6.632177   -2.686981
    160          1           0        6.491299   -6.332993   -0.952454
    161          1           0        6.285619   -5.011209   -2.139250
 ---------------------------------------------------------------------

 The electronic state is 1-A.
 Alpha  occ. eigenvalues --  -19.17612 -19.17361 -19.17354 -19.17353 -19.17172
 Alpha  occ. eigenvalues --  -19.16969 -19.16934 -19.16923 -14.35515 -14.35500
 Alpha  occ. eigenvalues --  -14.35438 -14.35390 -10.24369 -10.24129 -10.24128
 Alpha  occ. eigenvalues --  -10.24114 -10.24095 -10.24093 -10.23875 -10.23859
 Alpha  occ. eigenvalues --  -10.23854 -10.23839 -10.23838 -10.23834 -10.23736
 Alpha  occ. eigenvalues --  -10.23469 -10.23427 -10.23402 -10.22315 -10.22205
 Alpha  occ. eigenvalues --  -10.22161 -10.22103 -10.22029 -10.22021 -10.21995
 Alpha  occ. eigenvalues --  -10.21988 -10.21824 -10.21694 -10.21685 -10.21556
 Alpha  occ. eigenvalues --  -10.20534 -10.18775 -10.18719 -10.18680 -10.18586
 Alpha  occ. eigenvalues --  -10.18580 -10.18574 -10.18567 -10.18530 -10.18528
 Alpha  occ. eigenvalues --  -10.18526 -10.18526 -10.18524 -10.18522 -10.18491
 Alpha  occ. eigenvalues --  -10.18486 -10.18470 -10.18419 -10.18381 -10.18318
 Alpha  occ. eigenvalues --  -10.18241 -10.18241 -10.18191 -10.18180 -10.18174
 Alpha  occ. eigenvalues --  -10.18165 -10.18148 -10.18147 -10.18115 -10.18107
 Alpha  occ. eigenvalues --  -10.18083 -10.18032 -10.18029 -10.17922 -10.17910
 Alpha  occ. eigenvalues --  -10.17827 -10.17820 -10.17812 -10.17803 -10.17735
 Alpha  occ. eigenvalues --  -10.17710 -10.17710 -10.17548 -10.17498 -10.17468
 Alpha  occ. eigenvalues --  -10.17323 -10.17291 -10.17101 -10.17100 -10.17075
 Alpha  occ. eigenvalues --  -10.17072 -10.17036 -10.17024  -1.06165  -1.05927
 Alpha  occ. eigenvalues --   -1.05918  -1.05908  -1.05744  -1.05524  -1.05499
 Alpha  occ. eigenvalues --   -1.05492  -0.95428  -0.95419  -0.95359  -0.95296
 Alpha  occ. eigenvalues --   -0.89029  -0.86121  -0.84741  -0.84664  -0.84597
 Alpha  occ. eigenvalues --   -0.84547  -0.84088  -0.84023  -0.83349  -0.83112
 Alpha  occ. eigenvalues --   -0.82072  -0.82042  -0.79524  -0.77439  -0.76212
 Alpha  occ. eigenvalues --   -0.75771  -0.75551  -0.75446  -0.75326  -0.74859
 Alpha  occ. eigenvalues --   -0.74819  -0.74657  -0.74622  -0.74522  -0.74494
 Alpha  occ. eigenvalues --   -0.73888  -0.73836  -0.73668  -0.73566  -0.73511
 Alpha  occ. eigenvalues --   -0.73309  -0.73086  -0.72073  -0.71975  -0.70441
 Alpha  occ. eigenvalues --   -0.70248  -0.69480  -0.69403  -0.68866  -0.68658
 Alpha  occ. eigenvalues --   -0.68281  -0.68194  -0.67449  -0.67179  -0.67058
 Alpha  occ. eigenvalues --   -0.63552  -0.62858  -0.62102  -0.61861  -0.61553
 Alpha  occ. eigenvalues --   -0.61219  -0.60764  -0.60731  -0.60483  -0.60142
 Alpha  occ. eigenvalues --   -0.60112  -0.59203  -0.58893  -0.58628  -0.58580
 Alpha  occ. eigenvalues --   -0.58341  -0.58233  -0.57833  -0.57529  -0.57489
 Alpha  occ. eigenvalues --   -0.55962  -0.55760  -0.55671  -0.54972  -0.53579
 Alpha  occ. eigenvalues --   -0.53536  -0.53409  -0.53286  -0.52992  -0.52858
 Alpha  occ. eigenvalues --   -0.52662  -0.52238  -0.51533  -0.51204  -0.50895
 Alpha  occ. eigenvalues --   -0.49816  -0.49668  -0.49348  -0.48773  -0.48731
 Alpha  occ. eigenvalues --   -0.48523  -0.48435  -0.47849  -0.47793  -0.47701
 Alpha  occ. eigenvalues --   -0.47692  -0.47525  -0.47224  -0.47014  -0.46907
 Alpha  occ. eigenvalues --   -0.46734  -0.46657  -0.46521  -0.46488  -0.46468
 Alpha  occ. eigenvalues --   -0.46455  -0.46377  -0.46347  -0.46090  -0.46071
 Alpha  occ. eigenvalues --   -0.46047  -0.46010  -0.45382  -0.45183  -0.44587
 Alpha  occ. eigenvalues --   -0.44473  -0.44366  -0.44339  -0.43457  -0.43370
 Alpha  occ. eigenvalues --   -0.43077  -0.43017  -0.42902  -0.42648  -0.42622
 Alpha  occ. eigenvalues --   -0.42491  -0.42334  -0.42101  -0.42083  -0.42011
 Alpha  occ. eigenvalues --   -0.41962  -0.41781  -0.41747  -0.41534  -0.41400
 Alpha  occ. eigenvalues --   -0.41347  -0.41220  -0.40938  -0.40780  -0.40625
 Alpha  occ. eigenvalues --   -0.40534  -0.40436  -0.39920  -0.39789  -0.39187
 Alpha  occ. eigenvalues --   -0.39083  -0.38826  -0.38475  -0.38055  -0.37612
 Alpha  occ. eigenvalues --   -0.37478  -0.37426  -0.37335  -0.37274  -0.37129
 Alpha  occ. eigenvalues --   -0.37087  -0.37018  -0.36794  -0.36550  -0.36455
 Alpha  occ. eigenvalues --   -0.36359  -0.36226  -0.36165  -0.36113  -0.36059
 Alpha  occ. eigenvalues --   -0.36026  -0.35953  -0.35715  -0.35567  -0.35407
 Alpha  occ. eigenvalues --   -0.35323  -0.34887  -0.34850  -0.34729  -0.34499
 Alpha  occ. eigenvalues --   -0.33630  -0.33305  -0.32955  -0.32699  -0.32640
 Alpha  occ. eigenvalues --   -0.32583  -0.32457  -0.32349  -0.32289  -0.32240
 Alpha  occ. eigenvalues --   -0.32233  -0.32145  -0.32119  -0.32098  -0.31934
 Alpha  occ. eigenvalues --   -0.31580  -0.31563  -0.31507  -0.31406  -0.31228
 Alpha  occ. eigenvalues --   -0.29753  -0.29448  -0.28068  -0.27764  -0.26084
 Alpha  occ. eigenvalues --   -0.25986  -0.25627  -0.25084  -0.24906  -0.24728
 Alpha  occ. eigenvalues --   -0.24667  -0.23706  -0.23679  -0.23668  -0.23659
 Alpha  occ. eigenvalues --   -0.23269  -0.23105  -0.22872  -0.21989  -0.21447
 Alpha  occ. eigenvalues --   -0.21220  -0.21144  -0.21042  -0.20938  -0.17764
 Alpha  occ. eigenvalues --   -0.17727  -0.16090  -0.15969
 Alpha virt. eigenvalues --   -0.02508  -0.02440  -0.01144  -0.01035  -0.00538
 Alpha virt. eigenvalues --   -0.00278   0.00085   0.00165   0.00268   0.00392
 Alpha virt. eigenvalues --    0.00630   0.00721   0.01266   0.01701   0.01923

 Mulliken atomic charges:
              1
     1  C   -0.272607
     2  C    0.123028
     3  C    0.073192
     4  C    0.072529
     5  C    0.123549
     6  C    0.124681
     7  C    0.073677
     8  C    0.072840
     9  C    0.124785
    10  C   -0.244024
    11  C    0.287070
    12  C   -0.176300
    13  C   -0.204069
    14  C   -0.203641
    15  C   -0.179367
    16  C    0.293896
    17  C   -0.242947
    18  C   -0.240923
    19  C    0.289821
    20  C   -0.178070
    21  C   -0.204319
    22  C   -0.203240
    23  C   -0.176538
    24  C    0.293110
    25  C   -0.246043
    26  N   -0.664618
    27  N   -0.664503
    28  N   -0.662262
    29  N   -0.662035
    30  C    0.287988
    31  C    0.299061
    32  C    0.270255
    33  C    0.261563
    34  C    0.272119
    35  C    0.297820
    36  C    0.261101
    37  C    0.300593
    38  C   -0.162724
    39  C   -0.205946
    40  C    0.379663
    41  C   -0.184699
    42  C   -0.157831
    43  C   -0.164676
    44  C   -0.204876
    45  C    0.380401
    46  C   -0.191825
    47  C   -0.167493
    48  C   -0.235327
    49  C    0.377793
    50  C   -0.201962
    51  C   -0.146683
    52  C   -0.172959
    53  C   -0.234337
    54  C    0.378822
    55  C   -0.201046
    56  C   -0.154264
    57  C   -0.178153
    58  C   -0.185631
    59  C   -0.149471
    60  C   -0.175210
    61  C    0.380887
    62  C   -0.257376
    63  C   -0.168329
    64  C   -0.207201
    65  C    0.378643
    66  C   -0.186171
    67  C   -0.159200
    68  C   -0.169070
    69  C   -0.192475
    70  C    0.379720
    71  C   -0.207079
    72  C   -0.169288
    73  C   -0.177874
    74  C   -0.142639
    75  C   -0.174853
    76  C    0.378734
    77  C   -0.253002
    78  H    0.149949
    79  H    0.151583
    80  H    0.139337
    81  H    0.127726
    82  H    0.127410
    83  H    0.139946
    84  H    0.129101
    85  H    0.142299
    86  H    0.129266
    87  H    0.141938
    88  H    0.152814
    89  H    0.149067
    90  O   -0.508396
    91  C   -0.213667
    92  O   -0.509421
    93  C   -0.213808
    94  O   -0.509364
    95  O   -0.508524
    96  C   -0.213461
    97  C   -0.213789
    98  H    0.139457
    99  H    0.146846
   100  H    0.142716
   101  H    0.131431
   102  H    0.132400
   103  H    0.144538
   104  H    0.145572
   105  H    0.150833
   106  H    0.145798
   107  H    0.132745
   108  H    0.146379
   109  H    0.151865
   110  H    0.132924
   111  H    0.146755
   112  H    0.139623
   113  H    0.147026
   114  H    0.151128
   115  H    0.150285
   116  H    0.168925
   117  H    0.150298
   118  H    0.150653
   119  H    0.168582
   120  H    0.168439
   121  H    0.151586
   122  H    0.150221
   123  H    0.148853
   124  H    0.152140
   125  H    0.169164
   126  O   -0.512009
   127  H    0.143412
   128  H    0.131456
   129  H    0.132164
   130  H    0.146388
   131  H    0.141264
   132  H    0.130401
   133  H    0.131504
   134  O   -0.511664
   135  H    0.143251
   136  O   -0.510261
   137  H    0.148614
   138  H    0.126273
   139  H    0.133215
   140  H    0.147548
   141  H    0.141093
   142  H    0.127725
   143  H    0.125017
   144  O   -0.509952
   145  H    0.148321
   146  C   -0.213684
   147  C   -0.212526
   148  C   -0.212242
   149  C   -0.213730
   150  H    0.166529
   151  H    0.153205
   152  H    0.152481
   153  H    0.166922
   154  H    0.151541
   155  H    0.149352
   156  H    0.167205
   157  H    0.150745
   158  H    0.149037
   159  H    0.166159
   160  H    0.154415
   161  H    0.151481
 Sum of Mulliken atomic charges =   0.00000

 Dipole moment (field-independent basis, Debye):
    X=              3.0729    Y=              2.5960    Z=              2.6542  Tot=              4.8194
 Quadrupole moment (field-independent basis, Debye-Ang):
   XX=           -460.0164   YY=           -490.6755   ZZ=           -492.9620
   XY=             10.9587   XZ=            -12.2309   YZ=             -1.5360

 Normal termination of Gaussian 09 at Thu Aug  7 22:53:16 2014.
