 Gaussian 09, Revision A.02,
 Gaussian 09:  EM64L-G09RevA.02 11-Jun-2009

 -------------------
 #p opt b3lyp/6-31g*
 -------------------

 ----------
 Auto Spiro
 ----------
 Symbolic Z-matrix:
 Charge =  0 Multiplicity = 1

 SCF Done:  E(RB3LYP) =  -4406.35316131     A.U. after   15 cycles
 SCF Done:  E(RB3LYP) =  -4406.35405335     A.U. after   13 cycles
 SCF Done:  E(RB3LYP) =  -4406.35428269     A.U. after   12 cycles
 SCF Done:  E(RB3LYP) =  -4406.35530085     A.U. after   12 cycles
 SCF Done:  E(RB3LYP) =  -4406.35575860     A.U. after   12 cycles
 SCF Done:  E(RB3LYP) =  -4406.35589409     A.U. after   12 cycles
 SCF Done:  E(RB3LYP) =  -4406.35612615     A.U. after   12 cycles
 SCF Done:  E(RB3LYP) =  -4406.35636741     A.U. after   12 cycles
 SCF Done:  E(RB3LYP) =  -4406.35630971     A.U. after   11 cycles
 SCF Done:  E(RB3LYP) =  -4406.35646572     A.U. after   11 cycles
 SCF Done:  E(RB3LYP) =  -4406.35650216     A.U. after   10 cycles
 SCF Done:  E(RB3LYP) =  -4406.35651027     A.U. after   10 cycles
 SCF Done:  E(RB3LYP) =  -4406.35651657     A.U. after   10 cycles
 SCF Done:  E(RB3LYP) =  -4406.35651716     A.U. after   10 cycles
 SCF Done:  E(RB3LYP) =  -4406.35651802     A.U. after    7 cycles
 SCF Done:  E(RB3LYP) =  -4406.35651871     A.U. after    7 cycles
 SCF Done:  E(RB3LYP) =  -4406.35651845     A.U. after    6 cycles
 SCF Done:  E(RB3LYP) =  -4406.35651857     A.U. after    6 cycles
 SCF Done:  E(RB3LYP) =  -4406.35651896     A.U. after    6 cycles
 Optimization completed.
    -- Stationary point found.

                         Standard orientation:
 ---------------------------------------------------------------------
 Center     Atomic      Atomic             Coordinates (Angstroms)
 Number     Number       Type             X           Y           Z
 ---------------------------------------------------------------------
      1          6           0       -0.016548    0.049694    0.162459
      2          6           0        0.763366    0.936178   -0.816087
      3          6           0        0.445383    0.604460   -2.146763
      4          6           0       -0.548835   -0.471886   -2.139903
      5          6           0       -0.819357   -0.829311   -0.805862
      6          6           0        0.878509   -0.734641    1.129269
      7          6           0        0.538061   -0.447617    2.467500
      8          6           0       -0.590425    0.486342    2.475034
      9          6           0       -0.909986    0.820567    1.142579
     10          6           0        1.917219   -1.595348    0.821623
     11          6           0        2.648225   -2.193311    1.865410
     12          6           0        2.319483   -1.897983    3.199383
     13          6           0        1.272279   -1.028313    3.503705
     14          6           0       -1.210528   -1.121757   -3.185625
     15          6           0       -2.128820   -2.125998   -2.889825
     16          6           0       -2.401761   -2.481377   -1.557814
     17          6           0       -1.737924   -1.826453   -0.507637
     18          6           0        1.698273    1.922916   -0.532670
     19          6           0        2.327693    2.593717   -1.593894
     20          6           0        2.004453    2.266380   -2.921452
     21          6           0        1.071296    1.271852   -3.203332
     22          6           0       -1.343133    1.030115    3.517239
     23          6           0       -2.382270    1.914706    3.225693
     24          6           0       -2.681158    2.267300    1.898548
     25          6           0       -1.936125    1.699981    0.847862
     26          7           0        3.713097   -3.081818    1.569892
     27          7           0       -3.346594   -3.510560   -1.264578
     28          7           0        3.292787    3.610721   -1.319775
     29          7           0       -3.727821    3.186455    1.616909
     30          6           0       -4.980212    3.059871    2.272203
     31          6           0        2.858027    4.767033   -0.615183
     32          6           0       -3.549346    4.169658    0.605569
     33          6           0        4.627002    3.493952   -1.757592
     34          6           0        3.556788   -4.072974    0.568110
     35          6           0        4.943546   -2.961306    2.265936
     36          6           0       -4.681874   -3.435177   -1.711286
     37          6           0       -2.879292   -4.665704   -0.578776
     38          6           0       -5.486324   -4.580005   -1.802117
     39          6           0       -6.818617   -4.502692   -2.217052
     40          6           0       -7.377134   -3.271537   -2.568075
     41          6           0       -6.581579   -2.121700   -2.485369
     42          6           0       -5.262856   -2.197606   -2.057843
     43          6           0        4.605279   -4.413537   -0.291836
     44          6           0        4.446099   -5.399605   -1.271560
     45          6           0        3.217079   -6.048699   -1.414426
     46          6           0        2.164278   -5.718329   -0.550533
     47          6           0        2.333516   -4.753654    0.429348
     48          6           0        5.420655   -4.017682    3.072004
     49          6           0        6.646814   -3.908067    3.740155
     50          6           0        7.381634   -2.729253    3.625742
     51          6           0        6.928424   -1.662687    2.852382
     52          6           0        5.714627   -1.781768    2.161435
     53          6           0       -3.196075   -4.877689    0.778670
     54          6           0       -2.740593   -6.022228    1.446700
     55          6           0       -1.959170   -6.946068    0.755279
     56          6           0       -1.624340   -6.761975   -0.584641
     57          6           0       -2.089967   -5.621046   -1.254649
     58          6           0        2.076614    5.743068   -1.270550
     59          6           0        1.640976    6.885164   -0.582224
     60          6           0        1.998726    7.050296    0.754258
     61          6           0        2.773688    6.106083    1.425284
     62          6           0        3.197938    4.960076    0.739642
     63          6           0        5.163728    2.255533   -2.143522
     64          6           0        6.487602    2.139684   -2.577499
     65          6           0        7.316901    3.262838   -2.619527
     66          6           0        6.794508    4.501038   -2.225801
     67          6           0        5.475392    4.618149   -1.809641
     68          6           0       -2.316454    4.834388    0.479325
     69          6           0       -2.120914    5.789752   -0.505555
     70          6           0       -3.156747    6.122906   -1.387578
     71          6           0       -4.393860    5.484775   -1.260731
     72          6           0       -4.579405    4.509960   -0.275952
     73          6           0       -5.703827    1.839739    2.207594
     74          6           0       -6.947196    1.718398    2.836612
     75          6           0       -7.500273    2.814801    3.502299
     76          6           0       -6.816842    4.023701    3.563524
     77          6           0       -5.559609    4.142283    2.963297
     78          1           0       -2.185936    1.944354   -0.179427
     79          1           0        1.970174    2.168847    0.489218
     80          1           0        2.492621    2.809606   -3.723764
     81          1           0        0.829579    1.029714   -4.235316
     82          1           0       -1.007380   -0.859231   -4.220940
     83          1           0       -2.642110   -2.656153   -3.685235
     84          1           0       -1.124264    0.779020    4.552439
     85          1           0       -2.971795    2.341541    4.031448
     86          1           0        1.029700   -0.819285    4.543021
     87          1           0        2.887945   -2.368136    3.995964
     88          1           0       -1.970432   -2.093440    0.518695
     89          1           0        2.187494   -1.802948   -0.208781
     90          8           0       -2.853388    7.074797   -2.330895
     91          6           0       -3.868497    7.442630   -3.247993
     92          8           0        8.630751    3.261528   -3.022664
     93          6           0        9.188953    2.031525   -3.440936
     94          8           0       -8.669403   -3.082415   -2.994789
     95          8           0        2.936649   -7.011228   -2.355209
     96          6           0        3.966514   -7.369757   -3.258163
     97          6           0       -9.498097   -4.222598   -3.108693
     98          1           0       -7.019972   -1.165297   -2.754914
     99          1           0       -4.672906   -1.289909   -1.993392
    100          1           0        5.557942   -3.900886   -0.201363
    101          1           0        5.281909   -5.631540   -1.922472
    102          1           0       -7.400861   -5.416300   -2.269187
    103          1           0       -5.071768   -5.549063   -1.545916
    104          1           0        1.217981   -6.240679   -0.646302
    105          1           0        1.511984   -4.519495    1.097860
    106          1           0       -5.539760    4.010734   -0.195064
    107          1           0       -5.216861    5.719739   -1.926412
    108          1           0       -1.166173    6.297778   -0.593066
    109          1           0       -1.502439    4.590248    1.153971
    110          1           0        6.852622    1.161809   -2.872112
    111          1           0        4.543279    1.366764   -2.112236
    112          1           0        7.440820    5.373084   -2.263655
    113          1           0        5.093857    5.592147   -1.522784
    114          1           0        8.655678    1.614949   -4.307181
    115          1           0        9.187413    1.285981   -2.632881
    116          1           0       10.221018    2.247922   -3.725643
    117          1           0        4.839222   -7.784109   -2.734592
    118          1           0        4.289933   -6.513605   -3.866183
    119          1           0        3.543977   -8.135783   -3.911986
    120          1           0      -10.465491   -3.860254   -3.463415
    121          1           0       -9.634982   -4.726218   -2.141073
    122          1           0       -9.097572   -4.947584   -3.831404
    123          1           0       -4.742338    7.867523   -2.735545
    124          1           0       -4.192945    6.588549   -3.858121
    125          1           0       -3.428958    8.202405   -3.897736
    126          1           0        3.029578    6.259927    2.466379
    127          8           0        3.940164    3.965352    1.304644
    128          1           0        1.665613    7.937399    1.286163
    129          1           0        1.047374    7.641880   -1.080859
    130          8           0        1.806604    5.493418   -2.578649
    131          8           0       -5.111556    0.844616    1.494399
    132          1           0       -7.499768    0.788019    2.782279
    133          1           0       -8.474088    2.716725    3.974123
    134          1           0       -7.228556    4.889900    4.071128
    135          8           0       -4.946992    5.373467    3.007140
    136          1           0       -2.976712   -6.190006    2.490286
    137          8           0       -3.947390   -3.902528    1.365473
    138          1           0       -1.602040   -7.831630    1.273982
    139          1           0       -1.025110   -7.503158   -1.099556
    140          8           0       -1.843521   -5.353081   -2.564040
    141          8           0        5.196667   -0.814273    1.358874
    142          1           0        7.524241   -0.761756    2.771386
    143          1           0        8.328570   -2.640302    4.151418
    144          1           0        7.017129   -4.718329    4.356471
    145          8           0        4.607280   -5.108340    3.143420
    146          6           0       -1.024315   -6.250245   -3.302507
    147          6           0        5.865691    0.436494    1.280219
    148          6           0        1.005852    6.421088   -3.300245
    149          6           0       -5.752908   -0.420718    1.423491
    150          1           0       -0.967049   -5.832062   -4.308976
    151          1           0       -1.470431   -7.252292   -3.352823
    152          1           0       -0.013606   -6.321096   -2.882693
    153          1           0       -6.715378   -0.356043    0.899839
    154          1           0       -5.915860   -0.839838    2.425687
    155          1           0       -5.081386   -1.071226    0.862001
    156          1           0        1.477715    7.411673   -3.340052
    157          1           0       -0.000533    6.511888   -2.874065
    158          1           0        0.932649    6.017852   -4.311799
    159          1           0        5.243724    1.075493    0.652450
    160          1           0        6.857964    0.335548    0.821431
    161          1           0        5.974057    0.891678    2.273755
    162          6           0        5.047022   -6.232786    3.885792
    163          1           0        4.259302   -6.981361    3.783514
    164          1           0        5.181550   -5.990248    4.948567
    165          1           0        5.986523   -6.637972    3.487581
    166          6           0       -4.311254   -4.063617    2.728057
    167          1           0       -4.898439   -3.180278    2.984098
    168          1           0       -3.428939   -4.112237    3.379010
    169          1           0       -4.922772   -4.962836    2.877470
    170          6           0        4.338247    4.109920    2.659371
    171          1           0        4.913722    3.213469    2.895989
    172          1           0        4.970483    4.996012    2.800452
    173          1           0        3.472389    4.170899    3.331148
    174          6           0       -3.789991    5.468945    3.836115
    175          1           0       -4.029241    5.195868    4.873230
    176          1           0       -3.478369    6.515349    3.800118
    177          1           0       -2.973276    4.836704    3.472778
 ---------------------------------------------------------------------

 The electronic state is 1-A.
 Alpha  occ. eigenvalues --  -19.17804 -19.17724 -19.17313 -19.17310 -19.17217
 Alpha  occ. eigenvalues --  -19.16897 -19.16799 -19.16778 -19.16762 -19.15974
 Alpha  occ. eigenvalues --  -19.15914 -19.15114 -14.34636 -14.34146 -14.33896
 Alpha  occ. eigenvalues --  -14.33826 -10.24627 -10.24554 -10.24527 -10.24455
 Alpha  occ. eigenvalues --  -10.24284 -10.24186 -10.24084 -10.23942 -10.23880
 Alpha  occ. eigenvalues --  -10.23726 -10.23479 -10.23352 -10.23250 -10.23164
 Alpha  occ. eigenvalues --  -10.23114 -10.22978 -10.22948 -10.22897 -10.22857
 Alpha  occ. eigenvalues --  -10.22731 -10.22637 -10.22260 -10.22176 -10.22167
 Alpha  occ. eigenvalues --  -10.21263 -10.21218 -10.21007 -10.20966 -10.20957
 Alpha  occ. eigenvalues --  -10.20943 -10.20876 -10.20824 -10.20789 -10.20772
 Alpha  occ. eigenvalues --  -10.20768 -10.20636 -10.19892 -10.19127 -10.19055
 Alpha  occ. eigenvalues --  -10.18746 -10.18308 -10.18030 -10.17967 -10.17966
 Alpha  occ. eigenvalues --  -10.17926 -10.17917 -10.17881 -10.17853 -10.17782
 Alpha  occ. eigenvalues --  -10.17749 -10.17743 -10.17712 -10.17695 -10.17689
 Alpha  occ. eigenvalues --  -10.17665 -10.17595 -10.17592 -10.17585 -10.17558
 Alpha  occ. eigenvalues --  -10.17543 -10.17451 -10.17362 -10.17328 -10.17306
 Alpha  occ. eigenvalues --  -10.17290 -10.17242 -10.17224 -10.17213 -10.17202
 Alpha  occ. eigenvalues --  -10.17181 -10.17168 -10.17147 -10.17143 -10.17077
 Alpha  occ. eigenvalues --  -10.17064 -10.17012 -10.16976 -10.16928 -10.16850
 Alpha  occ. eigenvalues --  -10.16809 -10.16797 -10.16784 -10.16781 -10.16722
 Alpha  occ. eigenvalues --  -10.16684  -1.06426  -1.06356  -1.06114  -1.05975
 Alpha  occ. eigenvalues --   -1.05879  -1.05614  -1.05580  -1.05126  -1.05098
 Alpha  occ. eigenvalues --   -1.04455  -1.04390  -1.03813  -0.94291  -0.94101
 Alpha  occ. eigenvalues --   -0.93939  -0.93874  -0.88344  -0.85471  -0.84311
 Alpha  occ. eigenvalues --   -0.84191  -0.84122  -0.83907  -0.83409  -0.83191
 Alpha  occ. eigenvalues --   -0.82765  -0.82429  -0.81502  -0.81451  -0.78879
 Alpha  occ. eigenvalues --   -0.76821  -0.75733  -0.75461  -0.75275  -0.75141
 Alpha  occ. eigenvalues --   -0.75062  -0.75002  -0.74986  -0.74764  -0.74132
 Alpha  occ. eigenvalues --   -0.74002  -0.73607  -0.73542  -0.73087  -0.72952
 Alpha  occ. eigenvalues --   -0.72865  -0.72712  -0.72626  -0.72397  -0.72019
 Alpha  occ. eigenvalues --   -0.71832  -0.70113  -0.70037  -0.69961  -0.69793
 Alpha  occ. eigenvalues --   -0.69603  -0.68749  -0.68654  -0.68566  -0.68527
 Alpha  occ. eigenvalues --   -0.68046  -0.67273  -0.67125  -0.66713  -0.66019
 Alpha  occ. eigenvalues --   -0.65950  -0.62851  -0.62140  -0.61537  -0.61218
 Alpha  occ. eigenvalues --   -0.61023  -0.60213  -0.59792  -0.59360  -0.59229
 Alpha  occ. eigenvalues --   -0.59174  -0.58948  -0.58491  -0.58391  -0.58239
 Alpha  occ. eigenvalues --   -0.58117  -0.57964  -0.57485  -0.57135  -0.57096
 Alpha  occ. eigenvalues --   -0.56729  -0.55850  -0.55349  -0.55319  -0.54712
 Alpha  occ. eigenvalues --   -0.53588  -0.53491  -0.53237  -0.52676  -0.52353
 Alpha  occ. eigenvalues --   -0.52139  -0.52020  -0.51857  -0.51111  -0.50848
 Alpha  occ. eigenvalues --   -0.50627  -0.50254  -0.50176  -0.50117  -0.50012
 Alpha  occ. eigenvalues --   -0.49894  -0.49370  -0.49361  -0.48951  -0.48896
 Alpha  occ. eigenvalues --   -0.48437  -0.48354  -0.48165  -0.48108  -0.47640
 Alpha  occ. eigenvalues --   -0.46931  -0.46719  -0.46670  -0.46595  -0.46440
 Alpha  occ. eigenvalues --   -0.46424  -0.46163  -0.46130  -0.46090  -0.46014
 Alpha  occ. eigenvalues --   -0.45926  -0.45820  -0.45721  -0.45709  -0.45656
 Alpha  occ. eigenvalues --   -0.45555  -0.45356  -0.45307  -0.44663  -0.44590
 Alpha  occ. eigenvalues --   -0.44442  -0.44047  -0.44002  -0.43938  -0.43793
 Alpha  occ. eigenvalues --   -0.43641  -0.43429  -0.43374  -0.43251  -0.43184
 Alpha  occ. eigenvalues --   -0.43114  -0.42671  -0.42575  -0.42207  -0.42056
 Alpha  occ. eigenvalues --   -0.41991  -0.41858  -0.41274  -0.41138  -0.41005
 Alpha  occ. eigenvalues --   -0.40783  -0.40691  -0.40586  -0.40492  -0.40450
 Alpha  occ. eigenvalues --   -0.40397  -0.40379  -0.40263  -0.39841  -0.39741
 Alpha  occ. eigenvalues --   -0.39715  -0.39506  -0.39312  -0.39230  -0.38821
 Alpha  occ. eigenvalues --   -0.38603  -0.38357  -0.37975  -0.37958  -0.37847
 Alpha  occ. eigenvalues --   -0.37801  -0.37664  -0.37575  -0.37541  -0.37422
 Alpha  occ. eigenvalues --   -0.37320  -0.37033  -0.36936  -0.36780  -0.36498
 Alpha  occ. eigenvalues --   -0.36367  -0.36248  -0.36167  -0.36109  -0.35570
 Alpha  occ. eigenvalues --   -0.35372  -0.35087  -0.34928  -0.34817  -0.34492
 Alpha  occ. eigenvalues --   -0.34387  -0.34097  -0.34054  -0.34011  -0.33903
 Alpha  occ. eigenvalues --   -0.33768  -0.33695  -0.33606  -0.33361  -0.33237
 Alpha  occ. eigenvalues --   -0.33020  -0.32925  -0.32581  -0.32403  -0.32155
 Alpha  occ. eigenvalues --   -0.32019  -0.31999  -0.31803  -0.31671  -0.31615
 Alpha  occ. eigenvalues --   -0.31496  -0.31394  -0.31121  -0.30916  -0.30891
 Alpha  occ. eigenvalues --   -0.30779  -0.30618  -0.30317  -0.29911  -0.29831
 Alpha  occ. eigenvalues --   -0.29631  -0.28656  -0.27417  -0.27174  -0.26006
 Alpha  occ. eigenvalues --   -0.25638  -0.24832  -0.24665  -0.24578  -0.23672
 Alpha  occ. eigenvalues --   -0.23631  -0.23402  -0.23233  -0.22957  -0.22841
 Alpha  occ. eigenvalues --   -0.22808  -0.22553  -0.21951  -0.21881  -0.21785
 Alpha  occ. eigenvalues --   -0.21351  -0.21275  -0.21123  -0.21094  -0.20578
 Alpha  occ. eigenvalues --   -0.19896  -0.16982  -0.16543  -0.15756  -0.15409
 Alpha virt. eigenvalues --   -0.02032  -0.01733  -0.00245  -0.00180  -0.00027
 Alpha virt. eigenvalues --    0.00261   0.00479   0.00618   0.00797   0.01107
 Alpha virt. eigenvalues --    0.01677   0.01725   0.02263   0.02410   0.02519

 Mulliken atomic charges:
              1
     1  C   -0.272302
     2  C    0.124743
     3  C    0.075574
     4  C    0.075262
     5  C    0.127526
     6  C    0.118238
     7  C    0.072739
     8  C    0.073165
     9  C    0.119478
    10  C   -0.227070
    11  C    0.313237
    12  C   -0.179615
    13  C   -0.210600
    14  C   -0.209082
    15  C   -0.144335
    16  C    0.262457
    17  C   -0.229569
    18  C   -0.226694
    19  C    0.257246
    20  C   -0.141171
    21  C   -0.209959
    22  C   -0.210481
    23  C   -0.188227
    24  C    0.319615
    25  C   -0.230759
    26  N   -0.639459
    27  N   -0.646678
    28  N   -0.647302
    29  N   -0.658803
    30  C    0.169246
    31  C    0.113215
    32  C    0.322420
    33  C    0.363992
    34  C    0.327606
    35  C    0.129920
    36  C    0.360336
    37  C    0.114256
    38  C   -0.194006
    39  C   -0.205410
    40  C    0.370018
    41  C   -0.187282
    42  C   -0.196061
    43  C   -0.183483
    44  C   -0.204382
    45  C    0.370896
    46  C   -0.190265
    47  C   -0.169342
    48  C    0.362189
    49  C   -0.213647
    50  C   -0.139818
    51  C   -0.213408
    52  C    0.363005
    53  C    0.380518
    54  C   -0.212963
    55  C   -0.137872
    56  C   -0.217709
    57  C    0.377648
    58  C    0.378735
    59  C   -0.218648
    60  C   -0.138339
    61  C   -0.213121
    62  C    0.380270
    63  C   -0.209868
    64  C   -0.207912
    65  C    0.369518
    66  C   -0.184715
    67  C   -0.183711
    68  C   -0.178108
    69  C   -0.187256
    70  C    0.372801
    71  C   -0.201244
    72  C   -0.175550
    73  C    0.355604
    74  C   -0.209545
    75  C   -0.142960
    76  C   -0.179773
    77  C    0.323800
    78  H    0.151037
    79  H    0.148429
    80  H    0.139440
    81  H    0.125568
    82  H    0.125679
    83  H    0.139561
    84  H    0.121342
    85  H    0.127279
    86  H    0.120320
    87  H    0.131838
    88  H    0.148243
    89  H    0.148642
    90  O   -0.521975
    91  C   -0.211922
    92  O   -0.516104
    93  C   -0.207589
    94  O   -0.515677
    95  O   -0.521908
    96  C   -0.210260
    97  C   -0.207867
    98  H    0.131656
    99  H    0.147687
   100  H    0.135504
   101  H    0.124784
   102  H    0.122819
   103  H    0.132448
   104  H    0.138888
   105  H    0.147248
   106  H    0.140226
   107  H    0.128274
   108  H    0.141813
   109  H    0.144604
   110  H    0.125313
   111  H    0.146584
   112  H    0.129070
   113  H    0.133945
   114  H    0.145987
   115  H    0.142579
   116  H    0.161824
   117  H    0.147552
   118  H    0.149321
   119  H    0.161692
   120  H    0.162313
   121  H    0.143480
   122  H    0.145575
   123  H    0.151065
   124  H    0.150243
   125  H    0.162089
   126  H    0.130204
   127  O   -0.507654
   128  H    0.132140
   129  H    0.139921
   130  O   -0.503121
   131  O   -0.504571
   132  H    0.131470
   133  H    0.127580
   134  H    0.129321
   135  O   -0.521885
   136  H    0.130390
   137  O   -0.507689
   138  H    0.131631
   139  H    0.139126
   140  O   -0.503110
   141  O   -0.503205
   142  H    0.130168
   143  H    0.127012
   144  H    0.127263
   145  O   -0.503002
   146  C   -0.228572
   147  C   -0.230563
   148  C   -0.230402
   149  C   -0.232154
   150  H    0.169256
   151  H    0.147380
   152  H    0.177446
   153  H    0.155375
   154  H    0.141127
   155  H    0.201886
   156  H    0.148025
   157  H    0.178596
   158  H    0.168629
   159  H    0.202311
   160  H    0.149416
   161  H    0.143378
   162  C   -0.212482
   163  H    0.171883
   164  H    0.148285
   165  H    0.152061
   166  C   -0.218316
   167  H    0.170100
   168  H    0.157119
   169  H    0.152847
   170  C   -0.218113
   171  H    0.170487
   172  H    0.153710
   173  H    0.155837
   174  C   -0.210440
   175  H    0.135544
   176  H    0.159915
   177  H    0.163014
 Sum of Mulliken atomic charges =   0.00000

 Dipole moment (field-independent basis, Debye):
    X=              1.3466    Y=             -3.8146    Z=              2.2054  Tot=              4.6074
 Quadrupole moment (field-independent basis, Debye-Ang):
   XX=           -537.6324   YY=           -512.8133   ZZ=           -526.8842
   XY=             -8.7894   XZ=              6.2726   YZ=             -1.9045

 Normal termination of Gaussian 09 at Fri Aug  8 04:11:25 2014.
