 Gaussian 09, Revision A.02,
 Gaussian 09:  EM64L-G09RevA.02 11-Jun-2009

 -------------------
 #p opt b3lyp/6-31g*
 -------------------

 ----------
 Auto Spiro
 ----------
 Symbolic Z-matrix:
 Charge =  0 Multiplicity = 1

 SCF Done:  E(RB3LYP) =  -3948.27704653     A.U. after   15 cycles
 SCF Done:  E(RB3LYP) =  -3948.27707157     A.U. after   13 cycles
 SCF Done:  E(RB3LYP) =  -3948.27878740     A.U. after   12 cycles
 SCF Done:  E(RB3LYP) =  -3948.27903717     A.U. after   12 cycles
 SCF Done:  E(RB3LYP) =  -3948.27861615     A.U. after   12 cycles
 SCF Done:  E(RB3LYP) =  -3948.27939437     A.U. after   11 cycles
 SCF Done:  E(RB3LYP) =  -3948.27959151     A.U. after   12 cycles
 SCF Done:  E(RB3LYP) =  -3948.27948422     A.U. after   12 cycles
 SCF Done:  E(RB3LYP) =  -3948.27968539     A.U. after   11 cycles
 SCF Done:  E(RB3LYP) =  -3948.27970831     A.U. after   10 cycles
 SCF Done:  E(RB3LYP) =  -3948.27975289     A.U. after   10 cycles
 SCF Done:  E(RB3LYP) =  -3948.27976379     A.U. after   10 cycles
 SCF Done:  E(RB3LYP) =  -3948.27977136     A.U. after   10 cycles
 SCF Done:  E(RB3LYP) =  -3948.27977723     A.U. after   10 cycles
 SCF Done:  E(RB3LYP) =  -3948.27977736     A.U. after   10 cycles
 SCF Done:  E(RB3LYP) =  -3948.27978062     A.U. after   10 cycles
 SCF Done:  E(RB3LYP) =  -3948.27978257     A.U. after    9 cycles
 SCF Done:  E(RB3LYP) =  -3948.27978297     A.U. after    9 cycles
 SCF Done:  E(RB3LYP) =  -3948.27978305     A.U. after    6 cycles
 SCF Done:  E(RB3LYP) =  -3948.27978314     A.U. after    6 cycles
 Optimization completed.
    -- Stationary point found.

                         Standard orientation:
 ---------------------------------------------------------------------
 Center     Atomic      Atomic             Coordinates (Angstroms)
 Number     Number       Type             X           Y           Z
 ---------------------------------------------------------------------
      1          6           0       -0.062812   -0.045654    0.293071
      2          6           0       -0.871139   -0.911931   -0.680626
      3          6           0       -0.557952   -0.584575   -2.012705
      4          6           0        0.465023    0.465280   -2.011271
      5          6           0        0.746724    0.819596   -0.677833
      6          6           0       -0.949237    0.726992    1.277296
      7          6           0       -0.650342    0.358602    2.605755
      8          6           0        0.453962   -0.602872    2.590736
      9          6           0        0.813509   -0.862366    1.253160
     10          6           0       -1.957273    1.631840    0.992963
     11          6           0       -2.696110    2.193375    2.051195
     12          6           0       -2.407169    1.819806    3.373820
     13          6           0       -1.392483    0.904361    3.654489
     14          6           0        1.150577    1.088079   -3.058743
     15          6           0        2.107010    2.056551   -2.764696
     16          6           0        2.387585    2.412185   -1.434762
     17          6           0        1.693543    1.791961   -0.383528
     18          6           0       -1.819085   -1.878995   -0.380956
     19          6           0       -2.478064   -2.539606   -1.431000
     20          6           0       -2.169161   -2.209945   -2.763643
     21          6           0       -1.216557   -1.237925   -3.058086
     22          6           0        1.152130   -1.233848    3.621674
     23          6           0        2.184094   -2.117019    3.311355
     24          6           0        2.543490   -2.376439    1.975058
     25          6           0        1.843827   -1.731400    0.936327
     26          7           0       -3.725996    3.133028    1.770568
     27          7           0        3.400318    3.380876   -1.153960
     28          7           0       -3.465152   -3.531863   -1.158792
     29          7           0        3.606480   -3.266812    1.690515
     30          6           0        4.732602   -3.300942    2.561979
     31          6           0       -3.273630   -4.421303   -0.066004
     32          6           0        3.553890   -4.169387    0.594835
     33          6           0       -4.751798   -3.434922   -1.759574
     34          6           0       -3.446883    4.239082    0.923033
     35          6           0       -4.927578    3.115322    2.526683
     36          6           0        4.747216    3.129569   -1.500709
     37          6           0        3.051912    4.555738   -0.429788
     38          6           0        5.652512    4.182146   -1.699954
     39          6           0        6.988984    3.939534   -2.025002
     40          6           0        7.448965    2.628449   -2.178829
     41          6           0        6.550783    1.569860   -1.993149
     42          6           0        5.226284    1.812087   -1.651153
     43          6           0       -4.412869    4.724633    0.033738
     44          6           0       -4.142794    5.808250   -0.805744
     45          6           0       -2.881810    6.412701   -0.778767
     46          6           0       -1.911784    5.937706    0.113036
     47          6           0       -2.192052    4.872448    0.955756
     48          6           0       -5.362180    4.248410    3.221989
     49          6           0       -6.552821    4.241293    3.950547
     50          6           0       -7.315419    3.077869    4.007656
     51          6           0       -6.901712    1.930551    3.323631
     52          6           0       -5.724342    1.942228    2.569882
     53          6           0        3.574065    4.796075    0.844251
     54          6           0        3.260227    5.957814    1.551113
     55          6           0        2.401816    6.893750    0.978442
     56          6           0        1.867430    6.679625   -0.295335
     57          6           0        2.190103    5.519030   -1.009974
     58          6           0       -2.113200   -5.224172    0.014530
     59          6           0       -1.914148   -6.062347    1.112330
     60          6           0       -2.868220   -6.147767    2.126029
     61          6           0       -4.034373   -5.385575    2.038727
     62          6           0       -4.226525   -4.525764    0.959259
     63          6           0       -5.329554   -2.196014   -2.061777
     64          6           0       -6.585074   -2.113015   -2.670928
     65          6           0       -7.298670   -3.278238   -2.966866
     66          6           0       -6.733176   -4.523425   -2.654143
     67          6           0       -5.477417   -4.600522   -2.070128
     68          6           0        2.342360   -4.764041    0.196133
     69          6           0        2.305629   -5.657884   -0.864024
     70          6           0        3.478458   -6.004888   -1.547892
     71          6           0        4.690339   -5.428065   -1.156656
     72          6           0        4.718678   -4.510721   -0.103342
     73          6           0        5.554835   -2.155778    2.705493
     74          6           0        6.651117   -2.196007    3.574234
     75          6           0        6.952671   -3.368507    4.273072
     76          6           0        6.165004   -4.506660    4.116713
     77          6           0        5.056685   -4.461372    3.269015
     78          1           0        2.124793   -1.912242   -0.096137
     79          1           0       -2.062322   -2.120670    0.649138
     80          1           0       -2.687569   -2.723849   -3.567331
     81          1           0       -0.989215   -1.001515   -4.094555
     82          1           0        0.943378    0.825919   -4.093304
     83          1           0        2.648262    2.557722   -3.560629
     84          1           0        0.893577   -1.053189    4.662258
     85          1           0        2.721357   -2.620894    4.108316
     86          1           0       -1.181461    0.633069    4.685994
     87          1           0       -2.981588    2.259375    4.183558
     88          1           0        1.923053    2.058895    0.644061
     89          1           0       -2.195350    1.904905   -0.030483
     90          8           0        3.331374   -6.905730   -2.571499
     91          6           0        4.489093   -7.281364   -3.294239
     92          8           0       -8.534679   -3.314281   -3.552823
     93          6           0       -9.147613   -2.081707   -3.888772
     94          8           0        8.735962    2.277473   -2.501205
     95          8           0       -2.493815    7.459454   -1.579200
     96          6           0       -3.444410    7.987115   -2.488250
     97          6           0        9.671334    3.318351   -2.711214
     98          1           0        6.913309    0.553056   -2.111295
     99          1           0        4.553095    0.974548   -1.502828
    100          1           0       -5.387424    4.247756   -0.004954
    101          1           0       -4.915308    6.152454   -1.484301
    102          1           0        7.652693    4.785312   -2.167050
    103          1           0        5.311459    5.207026   -1.598887
    104          1           0       -0.941312    6.421577    0.144835
    105          1           0       -1.431298    4.518807    1.643702
    106          1           0        5.663484   -4.059214    0.181671
    107          1           0        5.616547   -5.667728   -1.667050
    108          1           0        1.364001   -6.104321   -1.163667
    109          1           0        1.420049   -4.518636    0.711299
    110          1           0       -6.994066   -1.134045   -2.894406
    111          1           0       -4.790991   -1.283109   -1.829411
    112          1           0       -7.292911   -5.422555   -2.892880
    113          1           0       -5.049206   -5.571906   -1.842924
    114          1           0       -8.546652   -1.513970   -4.612190
    115          1           0       -9.319792   -1.459041   -3.000218
    116          1           0      -10.108224   -2.336578   -4.340615
    117          1           0       -4.328708    8.377642   -1.966757
    118          1           0       -3.765456    7.235335   -3.222197
    119          1           0       -2.943262    8.806159   -3.008213
    120          1           0       10.617785    2.830271   -2.953384
    121          1           0        9.803596    3.935071   -1.811062
    122          1           0        9.376501    3.968390   -3.546862
    123          1           0        5.234533   -7.763548   -2.646542
    124          1           0        4.954944   -6.420078   -3.792863
    125          1           0        4.155305   -7.995752   -4.049840
    126          1           0       -4.787432   -5.443057    2.819837
    127          1           0       -5.124748   -3.918851    0.896402
    128          1           0       -2.704218   -6.810070    2.971249
    129          1           0       -1.002029   -6.651030    1.143522
    130          8           0       -1.128044   -5.166092   -0.946187
    131          8           0        5.208793   -1.076679    1.953150
    132          1           0        7.283168   -1.323734    3.696491
    133          1           0        7.812719   -3.383532    4.937211
    134          1           0        6.398872   -5.419052    4.657508
    135          1           0        4.423106   -5.333928    3.138683
    136          1           0        3.675637    6.122023    2.541046
    137          1           0        4.242990    4.053863    1.270443
    138          1           0        2.144037    7.802735    1.515266
    139          1           0        1.218089    7.428391   -0.735010
    140          8           0        1.744848    5.243656   -2.265205
    141          8           0       -5.269765    0.886080    1.839684
    142          1           0       -7.512302    1.035670    3.365441
    143          1           0       -8.238906    3.051979    4.579651
    144          1           0       -6.868129    5.135311    4.480757
    145          1           0       -4.749618    5.143993    3.179081
    146          6           0        0.906295    6.190265   -2.913999
    147          6           0       -6.003061   -0.326988    1.870621
    148          6           0       -1.459261   -5.778287   -2.195407
    149          6           0        6.013606    0.090378    2.026204
    150          1           0        0.690925    5.764918   -3.895918
    151          1           0        1.416317    7.154725   -3.041293
    152          1           0       -0.034302    6.346659   -2.372905
    153          1           0        7.054150   -0.120141    1.746341
    154          1           0        5.991415    0.531691    3.031473
    155          1           0        5.586771    0.791810    1.307684
    156          1           0       -0.578203   -5.666509   -2.830452
    157          1           0       -2.315801   -5.287275   -2.669343
    158          1           0       -1.679740   -6.845421   -2.058389
    159          1           0       -5.460479   -1.018116    1.223232
    160          1           0       -7.022371   -0.193591    1.483805
    161          1           0       -6.054144   -0.741607    2.886001
 ---------------------------------------------------------------------

 The electronic state is 1-A.
 Alpha  occ. eigenvalues --  -19.17543 -19.17487 -19.17252 -19.17240 -19.16986
 Alpha  occ. eigenvalues --  -19.16423 -19.16315 -19.15792 -14.35644 -14.34787
 Alpha  occ. eigenvalues --  -14.34517 -14.34274 -10.24325 -10.24197 -10.24177
 Alpha  occ. eigenvalues --  -10.24080 -10.24064 -10.24018 -10.23807 -10.23569
 Alpha  occ. eigenvalues --  -10.23518 -10.23229 -10.23215 -10.23072 -10.23011
 Alpha  occ. eigenvalues --  -10.22838 -10.22741 -10.22480 -10.22285 -10.22104
 Alpha  occ. eigenvalues --  -10.21911 -10.21696 -10.21527 -10.21404 -10.21309
 Alpha  occ. eigenvalues --  -10.21271 -10.21256 -10.21235 -10.21210 -10.20773
 Alpha  occ. eigenvalues --  -10.20156 -10.18734 -10.18686 -10.18640 -10.18619
 Alpha  occ. eigenvalues --  -10.18611 -10.18517 -10.18464 -10.18408 -10.18408
 Alpha  occ. eigenvalues --  -10.18389 -10.18383 -10.18367 -10.18358 -10.18355
 Alpha  occ. eigenvalues --  -10.18283 -10.18275 -10.18268 -10.18224 -10.18186
 Alpha  occ. eigenvalues --  -10.18147 -10.18141 -10.18108 -10.18106 -10.18024
 Alpha  occ. eigenvalues --  -10.18007 -10.17940 -10.17927 -10.17920 -10.17916
 Alpha  occ. eigenvalues --  -10.17897 -10.17817 -10.17720 -10.17710 -10.17695
 Alpha  occ. eigenvalues --  -10.17690 -10.17660 -10.17634 -10.17582 -10.17579
 Alpha  occ. eigenvalues --  -10.17518 -10.17412 -10.17372 -10.17350 -10.17344
 Alpha  occ. eigenvalues --  -10.17302 -10.17284 -10.17254 -10.17224 -10.17007
 Alpha  occ. eigenvalues --  -10.16985 -10.16903 -10.16724  -1.06030  -1.06000
 Alpha  occ. eigenvalues --   -1.05939  -1.05873  -1.05737  -1.04918  -1.04805
 Alpha  occ. eigenvalues --   -1.04348  -0.95379  -0.94786  -0.94433  -0.94371
 Alpha  occ. eigenvalues --   -0.88648  -0.85745  -0.84816  -0.84479  -0.84366
 Alpha  occ. eigenvalues --   -0.84110  -0.84074  -0.83695  -0.83188  -0.82881
 Alpha  occ. eigenvalues --   -0.81966  -0.81575  -0.79153  -0.77043  -0.75848
 Alpha  occ. eigenvalues --   -0.75631  -0.75550  -0.75213  -0.75039  -0.74602
 Alpha  occ. eigenvalues --   -0.74463  -0.74278  -0.74224  -0.74188  -0.74019
 Alpha  occ. eigenvalues --   -0.73962  -0.73652  -0.73335  -0.73239  -0.73068
 Alpha  occ. eigenvalues --   -0.72744  -0.72619  -0.71994  -0.71867  -0.70112
 Alpha  occ. eigenvalues --   -0.70078  -0.69183  -0.68962  -0.68805  -0.68720
 Alpha  occ. eigenvalues --   -0.68048  -0.67745  -0.67065  -0.66690  -0.66394
 Alpha  occ. eigenvalues --   -0.63203  -0.62240  -0.61887  -0.61493  -0.61404
 Alpha  occ. eigenvalues --   -0.61282  -0.60784  -0.60129  -0.59979  -0.59560
 Alpha  occ. eigenvalues --   -0.59290  -0.59064  -0.58841  -0.58631  -0.58503
 Alpha  occ. eigenvalues --   -0.58417  -0.57935  -0.57470  -0.57297  -0.57090
 Alpha  occ. eigenvalues --   -0.56052  -0.55670  -0.55354  -0.54846  -0.53409
 Alpha  occ. eigenvalues --   -0.53282  -0.53022  -0.52705  -0.52629  -0.52525
 Alpha  occ. eigenvalues --   -0.52152  -0.51916  -0.51379  -0.50820  -0.50765
 Alpha  occ. eigenvalues --   -0.50164  -0.49988  -0.49846  -0.49572  -0.49262
 Alpha  occ. eigenvalues --   -0.48524  -0.48337  -0.48180  -0.47979  -0.47672
 Alpha  occ. eigenvalues --   -0.47631  -0.47025  -0.46728  -0.46666  -0.46640
 Alpha  occ. eigenvalues --   -0.46494  -0.46291  -0.46121  -0.46012  -0.45910
 Alpha  occ. eigenvalues --   -0.45870  -0.45737  -0.45706  -0.45589  -0.45260
 Alpha  occ. eigenvalues --   -0.45131  -0.44947  -0.44675  -0.44526  -0.44389
 Alpha  occ. eigenvalues --   -0.44114  -0.43648  -0.43456  -0.43368  -0.43258
 Alpha  occ. eigenvalues --   -0.43135  -0.42905  -0.42826  -0.42681  -0.42601
 Alpha  occ. eigenvalues --   -0.42412  -0.42225  -0.42140  -0.42088  -0.41939
 Alpha  occ. eigenvalues --   -0.41836  -0.41507  -0.41322  -0.41241  -0.41116
 Alpha  occ. eigenvalues --   -0.41033  -0.40947  -0.40777  -0.40655  -0.40456
 Alpha  occ. eigenvalues --   -0.40180  -0.39956  -0.39621  -0.39331  -0.38764
 Alpha  occ. eigenvalues --   -0.38654  -0.38413  -0.38056  -0.37813  -0.37717
 Alpha  occ. eigenvalues --   -0.37575  -0.37303  -0.37197  -0.37189  -0.37029
 Alpha  occ. eigenvalues --   -0.36912  -0.36849  -0.36824  -0.36683  -0.36506
 Alpha  occ. eigenvalues --   -0.36220  -0.36173  -0.35860  -0.35716  -0.35551
 Alpha  occ. eigenvalues --   -0.35493  -0.35397  -0.35277  -0.35228  -0.35015
 Alpha  occ. eigenvalues --   -0.34979  -0.34610  -0.34415  -0.34185  -0.34067
 Alpha  occ. eigenvalues --   -0.33451  -0.33220  -0.32874  -0.32734  -0.32591
 Alpha  occ. eigenvalues --   -0.32394  -0.32339  -0.32214  -0.32087  -0.31955
 Alpha  occ. eigenvalues --   -0.31831  -0.31756  -0.31602  -0.31347  -0.31314
 Alpha  occ. eigenvalues --   -0.31272  -0.31178  -0.31033  -0.30878  -0.29031
 Alpha  occ. eigenvalues --   -0.28684  -0.27756  -0.27329  -0.26660  -0.25901
 Alpha  occ. eigenvalues --   -0.25436  -0.25211  -0.25004  -0.24485  -0.24293
 Alpha  occ. eigenvalues --   -0.24085  -0.23955  -0.23776  -0.23560  -0.23378
 Alpha  occ. eigenvalues --   -0.23342  -0.23093  -0.22843  -0.22456  -0.21609
 Alpha  occ. eigenvalues --   -0.21441  -0.21318  -0.21199  -0.20443  -0.17508
 Alpha  occ. eigenvalues --   -0.17197  -0.16232  -0.15464
 Alpha virt. eigenvalues --   -0.02442  -0.01865  -0.01140  -0.00589  -0.00437
 Alpha virt. eigenvalues --   -0.00310   0.00018   0.00364   0.00394   0.00598
 Alpha virt. eigenvalues --    0.00850   0.01123   0.01352   0.01729   0.01889

 Mulliken atomic charges:
              1
     1  C   -0.274411
     2  C    0.129192
     3  C    0.073143
     4  C    0.074375
     5  C    0.121774
     6  C    0.116733
     7  C    0.074802
     8  C    0.072365
     9  C    0.120056
    10  C   -0.226318
    11  C    0.313705
    12  C   -0.186791
    13  C   -0.207713
    14  C   -0.209028
    15  C   -0.140438
    16  C    0.269955
    17  C   -0.227083
    18  C   -0.240578
    19  C    0.308167
    20  C   -0.172398
    21  C   -0.202633
    22  C   -0.205162
    23  C   -0.188526
    24  C    0.331622
    25  C   -0.235732
    26  N   -0.647002
    27  N   -0.650713
    28  N   -0.664344
    29  N   -0.651714
    30  C    0.182737
    31  C    0.242930
    32  C    0.301109
    33  C    0.286125
    34  C    0.283231
    35  C    0.215018
    36  C    0.325310
    37  C    0.197542
    38  C   -0.186342
    39  C   -0.204585
    40  C    0.372083
    41  C   -0.187166
    42  C   -0.195825
    43  C   -0.167640
    44  C   -0.202270
    45  C    0.374130
    46  C   -0.188569
    47  C   -0.177075
    48  C   -0.174121
    49  C   -0.143919
    50  C   -0.134679
    51  C   -0.209513
    52  C    0.364242
    53  C   -0.153873
    54  C   -0.146129
    55  C   -0.133522
    56  C   -0.216979
    57  C    0.369546
    58  C    0.331576
    59  C   -0.175580
    60  C   -0.136668
    61  C   -0.135641
    62  C   -0.183640
    63  C   -0.192876
    64  C   -0.207461
    65  C    0.377236
    66  C   -0.182682
    67  C   -0.168094
    68  C   -0.183034
    69  C   -0.190487
    70  C    0.375003
    71  C   -0.204879
    72  C   -0.178752
    73  C    0.373657
    74  C   -0.210469
    75  C   -0.131630
    76  C   -0.146072
    77  C   -0.157596
    78  H    0.151791
    79  H    0.151075
    80  H    0.134072
    81  H    0.127794
    82  H    0.126243
    83  H    0.137986
    84  H    0.123970
    85  H    0.135586
    86  H    0.125375
    87  H    0.135099
    88  H    0.142932
    89  H    0.144579
    90  O   -0.514755
    91  C   -0.210457
    92  O   -0.510613
    93  C   -0.212952
    94  O   -0.514225
    95  O   -0.521076
    96  C   -0.213044
    97  C   -0.209729
    98  H    0.135868
    99  H    0.152579
   100  H    0.138846
   101  H    0.128856
   102  H    0.126372
   103  H    0.137921
   104  H    0.144325
   105  H    0.151260
   106  H    0.138383
   107  H    0.126925
   108  H    0.147257
   109  H    0.155838
   110  H    0.133092
   111  H    0.153843
   112  H    0.138948
   113  H    0.140178
   114  H    0.150584
   115  H    0.148980
   116  H    0.168398
   117  H    0.151352
   118  H    0.150054
   119  H    0.165021
   120  H    0.164158
   121  H    0.145447
   122  H    0.147227
   123  H    0.147127
   124  H    0.148445
   125  H    0.163162
   126  H    0.127697
   127  H    0.140968
   128  H    0.130416
   129  H    0.142741
   130  O   -0.524769
   131  O   -0.501641
   132  H    0.133327
   133  H    0.126432
   134  H    0.125593
   135  H    0.141064
   136  H    0.126566
   137  H    0.137548
   138  H    0.129193
   139  H    0.143259
   140  O   -0.503449
   141  O   -0.502701
   142  H    0.131240
   143  H    0.125067
   144  H    0.124745
   145  H    0.141342
   146  C   -0.231164
   147  C   -0.220882
   148  C   -0.215732
   149  C   -0.224010
   150  H    0.167026
   151  H    0.145968
   152  H    0.178033
   153  H    0.151437
   154  H    0.148564
   155  H    0.185221
   156  H    0.171258
   157  H    0.160217
   158  H    0.140299
   159  H    0.180551
   160  H    0.147303
   161  H    0.152161
 Sum of Mulliken atomic charges =   0.00000

 Dipole moment (field-independent basis, Debye):
    X=             -1.8638    Y=              2.8080    Z=             -1.8435  Tot=              3.8415
 Quadrupole moment (field-independent basis, Debye-Ang):
   XX=           -464.5104   YY=           -487.5178   ZZ=           -499.7977
   XY=             -4.5801   XZ=              8.8013   YZ=            -12.7554

 Normal termination of Gaussian 09 at Fri Aug  8 09:31:07 2014.
