 Gaussian 09, Revision A.02,
 Gaussian 09:  EM64L-G09RevA.02 11-Jun-2009

 -------------------
 #p opt b3lyp/6-31g*
 -------------------

 ----------
 Auto Spiro
 ----------
 Symbolic Z-matrix:
 Charge =  0 Multiplicity = 1

 SCF Done:  E(RB3LYP) =  -4406.36074182     A.U. after   15 cycles
 SCF Done:  E(RB3LYP) =  -4406.36180832     A.U. after   15 cycles
 SCF Done:  E(RB3LYP) =  -4406.36076240     A.U. after   16 cycles
 SCF Done:  E(RB3LYP) =  -4406.36225775     A.U. after   12 cycles
 SCF Done:  E(RB3LYP) =  -4406.36266641     A.U. after   12 cycles
 SCF Done:  E(RB3LYP) =  -4406.36274776     A.U. after   11 cycles
 SCF Done:  E(RB3LYP) =  -4406.36277333     A.U. after   10 cycles
 SCF Done:  E(RB3LYP) =  -4406.36280019     A.U. after   11 cycles
 SCF Done:  E(RB3LYP) =  -4406.36279115     A.U. after   11 cycles
 SCF Done:  E(RB3LYP) =  -4406.36280270     A.U. after   10 cycles
 SCF Done:  E(RB3LYP) =  -4406.36281076     A.U. after   10 cycles
 SCF Done:  E(RB3LYP) =  -4406.36281047     A.U. after    9 cycles
 SCF Done:  E(RB3LYP) =  -4406.36281142     A.U. after    7 cycles
 SCF Done:  E(RB3LYP) =  -4406.36281279     A.U. after    7 cycles
 SCF Done:  E(RB3LYP) =  -4406.36281298     A.U. after    6 cycles
 SCF Done:  E(RB3LYP) =  -4406.36281312     A.U. after    6 cycles
 Optimization completed.
    -- Stationary point found.

                         Standard orientation:
 ---------------------------------------------------------------------
 Center     Atomic      Atomic             Coordinates (Angstroms)
 Number     Number       Type             X           Y           Z
 ---------------------------------------------------------------------
      1          6           0       -0.020812   -0.011012    0.254683
      2          6           0        0.536287   -1.043583    1.241990
      3          6           0        0.308444   -0.630940    2.569972
      4          6           0       -0.395979    0.652381    2.551170
      5          6           0       -0.595425    1.041096    1.211448
      6          6           0        1.025849    0.551375   -0.714579
      7          6           0        0.634624    0.327000   -2.049034
      8          6           0       -0.650907   -0.373411   -2.052427
      9          6           0       -1.054175   -0.588289   -0.720298
     10          6           0        2.217392    1.189445   -0.409139
     11          6           0        3.046144    1.639238   -1.455454
     12          6           0        2.648196    1.425371   -2.789783
     13          6           0        1.458330    0.766233   -3.088647
     14          6           0       -0.859681    1.475044    3.580255
     15          6           0       -1.503251    2.670385    3.266820
     16          6           0       -1.707915    3.056446    1.927914
     17          6           0       -1.245486    2.221462    0.891504
     18          6           0        1.194776   -2.228753    0.957699
     19          6           0        1.635977   -3.043612    2.018777
     20          6           0        1.401989   -2.633975    3.345719
     21          6           0        0.750610   -1.434370    3.623739
     22          6           0       -1.465341   -0.820505   -3.096141
     23          6           0       -2.656704   -1.479180   -2.803654
     24          6           0       -3.065123   -1.687241   -1.471067
     25          6           0       -2.246575   -1.227518   -0.420728
     26          7           0        4.266837    2.304481   -1.171819
     27          7           0       -2.376189    4.269948    1.624613
     28          7           0        2.311288   -4.263133    1.754156
     29          7           0       -4.284736   -2.354753   -1.194529
     30          6           0       -5.435623   -2.107208   -1.996289
     31          6           0        1.857066   -5.123471    0.715738
     32          6           0       -4.385156   -3.240399   -0.085935
     33          6           0        3.428246   -4.645505    2.547045
     34          6           0        4.348322    3.220355   -0.085585
     35          6           0        5.427677    2.032699   -1.946946
     36          6           0       -3.488060    4.686955    2.407224
     37          6           0       -1.901401    5.106485    0.574988
     38          6           0       -3.607959    6.011089    2.844651
     39          6           0       -4.711986    6.429128    3.591879
     40          6           0       -5.710483    5.511865    3.935453
     41          6           0       -5.593037    4.180087    3.510799
     42          6           0       -4.505386    3.777014    2.749560
     43          6           0        5.441667    3.205067    0.787443
     44          6           0        5.542831    4.120130    1.837751
     45          6           0        4.526720    5.057902    2.047150
     46          6           0        3.419277    5.070653    1.186000
     47          6           0        3.336322    4.173768    0.129978
     48          6           0        6.269095    3.080012   -2.360550
     49          6           0        7.418386    2.832952   -3.101217
     50          6           0        7.750769    1.510174   -3.471949
     51          6           0        6.900927    0.471600   -3.084510
     52          6           0        5.759957    0.726115   -2.319467
     53          6           0       -2.818886    5.698121   -0.316406
     54          6           0       -2.383474    6.531822   -1.340770
     55          6           0       -0.996390    6.773117   -1.513674
     56          6           0       -0.095714    6.173505   -0.637357
     57          6           0       -0.540076    5.355128    0.408952
     58          6           0        0.497961   -5.366826    0.522623
     59          6           0        0.073008   -6.209977   -0.511697
     60          6           0        0.989823   -6.840777   -1.348601
     61          6           0        2.373830   -6.606252   -1.147080
     62          6           0        2.790912   -5.746690   -0.136334
     63          6           0        4.427741   -3.721046    2.873416
     64          6           0        5.523414   -4.086627    3.658459
     65          6           0        5.649250   -5.404234    4.111777
     66          6           0        4.658957   -6.340104    3.779715
     67          6           0        3.560626   -5.964202    3.018960
     68          6           0       -3.377508   -4.187936    0.173780
     69          6           0       -3.480550   -5.057480    1.250706
     70          6           0       -4.603939   -5.022554    2.090475
     71          6           0       -5.616270   -4.091367    1.837195
     72          6           0       -5.495607   -3.204108    0.765044
     73          6           0       -5.794982   -0.811990   -2.364320
     74          6           0       -6.924478   -0.593745   -3.162811
     75          6           0       -7.723897   -1.653913   -3.581476
     76          6           0       -7.368350   -2.973184   -3.199533
     77          6           0       -6.230676   -3.187544   -2.429038
     78          1           0       -2.555753   -1.373023    0.609434
     79          1           0        1.375125   -2.534821   -0.068005
     80          1           0        1.735380   -3.270209    4.159214
     81          1           0        0.579049   -1.142558    4.656903
     82          1           0       -0.711351    1.201819    4.622068
     83          1           0       -1.852763    3.321196    4.061735
     84          1           0       -1.172834   -0.674585   -4.133046
     85          1           0       -3.286463   -1.841567   -3.609502
     86          1           0        1.173971    0.614517   -4.126964
     87          1           0        3.284551    1.783639   -3.592452
     88          1           0       -1.404279    2.508359   -0.143238
     89          1           0        2.517867    1.342949    0.622497
     90          8           0       -4.613567   -5.931346    3.112661
     91          6           0       -5.712568   -5.915625    4.007054
     92          8           0        6.684004   -5.874643    4.874176
     93          6           0        7.708021   -4.966292    5.239618
     94          8           0       -6.827469    5.807676    4.668989
     95          8           0        4.517811    5.992977    3.045248
     96          6           0        5.609109    6.012070    3.949012
     97          6           0       -6.988150    7.137716    5.129883
     98          1           0       -6.378179    3.479087    3.777152
     99          1           0       -4.432470    2.746928    2.414948
    100          1           0        6.230659    2.474245    0.640614
    101          1           0        6.410036    4.079574    2.487024
    102          1           0       -4.770263    7.464296    3.909138
    103          1           0       -2.830952    6.726293    2.593579
    104          1           0        2.638890    5.806142    1.357498
    105          1           0        2.477324    4.200032   -0.533390
    106          1           0       -6.280220   -2.476070    0.584452
    107          1           0       -6.494179   -4.032543    2.470706
    108          1           0       -2.703077   -5.787281    1.456445
    109          1           0       -2.505517   -4.230377   -0.471661
    110          1           0        6.273157   -3.339679    3.893976
    111          1           0        4.345241   -2.699694    2.514998
    112          1           0        4.763016   -7.357406    4.144584
    113          1           0        2.793097   -6.693811    2.780734
    114          1           0        7.316001   -4.132915    5.838486
    115          1           0        8.224635   -4.561312    4.358651
    116          1           0        8.417574   -5.538450    5.840601
    117          1           0        6.558487    6.213055    3.434096
    118          1           0        5.694363    5.066233    4.501077
    119          1           0        5.402962    6.821407    4.652136
    120          1           0       -7.928848    7.152798    5.683852
    121          1           0       -7.047762    7.851501    4.296810
    122          1           0       -6.169699    7.436797    5.798785
    123          1           0       -6.658943   -6.127904    3.490888
    124          1           0       -5.797203   -4.952182    4.527695
    125          1           0       -5.517166   -6.703267    4.737337
    126          8           0        3.209914   -7.256524   -2.006075
    127          1           0        3.844425   -5.545517    0.011313
    128          1           0       -0.989303   -6.383374   -0.642228
    129          1           0       -0.234287   -4.897364    1.170680
    130          1           0       -5.195371    0.030059   -2.035632
    131          1           0       -7.181142    0.422648   -3.438910
    132          8           0       -8.196345   -3.957573   -3.652180
    133          1           0       -5.940118   -4.191608   -2.146534
    134          8           0       -3.202454    7.149384   -2.239509
    135          1           0       -3.874013    5.491891   -0.188156
    136          1           0        0.968078    6.352092   -0.746732
    137          1           0        0.179226    4.908271    1.086898
    138          1           0        5.125538   -0.098703   -2.012539
    139          1           0        7.131806   -0.553504   -3.351742
    140          8           0        8.235212    3.894505   -3.411275
    141          1           0        6.044277    4.107434   -2.095670
    142          8           0        0.674374   -7.688060   -2.371639
    143          6           0       -0.696674   -7.948920   -2.610227
    144          8           0        8.909238    1.351099   -4.184199
    145          6           0        9.304776    0.032521   -4.521853
    146          8           0       -0.662290    7.594328   -2.551456
    147          6           0        0.712537    7.859168   -2.764849
    148          8           0       -8.850094   -1.541878   -4.345074
    149          6           0       -9.250644   -0.242811   -4.740722
    150          1           0       -0.727385   -8.631082   -3.462116
    151          1           0       -1.246724   -7.031184   -2.860185
    152          1           0       -1.175800   -8.428139   -1.745217
    153          1           0      -10.159642   -0.376797   -5.330394
    154          1           0       -8.486290    0.247061   -5.359742
    155          1           0       -9.471576    0.395617   -3.874129
    156          1           0        0.758434    8.518214   -3.634031
    157          1           0        1.167582    8.365306   -1.902278
    158          1           0        1.274810    6.939392   -2.976795
    159          1           0        8.570309   -0.457618   -5.175352
    160          1           0        9.455512   -0.584167   -3.625812
    161          1           0       10.252107    0.131277   -5.055307
    162          6           0       -7.896447   -5.294949   -3.292902
    163          6           0       -4.598619    6.942870   -2.116129
    164          6           0        8.324371    4.228892   -4.797519
    165          6           0        4.605082   -7.073806   -1.840448
    166          1           0       -5.058174    7.531031   -2.912868
    167          1           0       -4.865015    5.885120   -2.246431
    168          1           0       -4.975728    7.289076   -1.144319
    169          1           0       -8.683527   -5.906497   -3.738226
    170          1           0       -7.900901   -5.432646   -2.203252
    171          1           0       -6.922591   -5.612829   -3.689607
    172          1           0        5.079179   -7.693712   -2.603911
    173          1           0        4.941442   -7.398944   -0.846763
    174          1           0        4.897718   -6.025749   -1.991685
    175          1           0        7.332935    4.467920   -5.205816
    176          1           0        8.774649    3.418916   -5.379305
    177          1           0        8.959419    5.116354   -4.852590
 ---------------------------------------------------------------------

 The electronic state is 1-A.
 Alpha  occ. eigenvalues --  -19.17739 -19.17260 -19.17252 -19.17239 -19.17188
 Alpha  occ. eigenvalues --  -19.17076 -19.16939 -19.16866 -19.16857 -19.16679
 Alpha  occ. eigenvalues --  -19.16672 -19.15401 -14.35312 -14.35206 -14.35063
 Alpha  occ. eigenvalues --  -14.35040 -10.24155 -10.24050 -10.24033 -10.23977
 Alpha  occ. eigenvalues --  -10.23917 -10.23903 -10.23901 -10.23820 -10.23819
 Alpha  occ. eigenvalues --  -10.23813 -10.23804 -10.23774 -10.23705 -10.23653
 Alpha  occ. eigenvalues --  -10.23521 -10.23509 -10.23405 -10.23382 -10.23380
 Alpha  occ. eigenvalues --  -10.23337 -10.23328 -10.23236 -10.23184 -10.22259
 Alpha  occ. eigenvalues --  -10.21864 -10.21850 -10.21826 -10.21717 -10.21706
 Alpha  occ. eigenvalues --  -10.21630 -10.21617 -10.21578 -10.21540 -10.21517
 Alpha  occ. eigenvalues --  -10.21460 -10.21434 -10.20269 -10.18673 -10.18457
 Alpha  occ. eigenvalues --  -10.18415 -10.18399 -10.18374 -10.18374 -10.18369
 Alpha  occ. eigenvalues --  -10.18332 -10.18312 -10.18311 -10.18308 -10.18289
 Alpha  occ. eigenvalues --  -10.18285 -10.18266 -10.18262 -10.18254 -10.18252
 Alpha  occ. eigenvalues --  -10.18251 -10.18142 -10.18124 -10.18049 -10.18043
 Alpha  occ. eigenvalues --  -10.18039 -10.18031 -10.18023 -10.18002 -10.17980
 Alpha  occ. eigenvalues --  -10.17949 -10.17933 -10.17931 -10.17891 -10.17841
 Alpha  occ. eigenvalues --  -10.17783 -10.17760 -10.17737 -10.17708 -10.17708
 Alpha  occ. eigenvalues --  -10.17696 -10.17596 -10.17593 -10.17589 -10.17561
 Alpha  occ. eigenvalues --  -10.17551 -10.17474 -10.17473 -10.17430 -10.17357
 Alpha  occ. eigenvalues --  -10.17344  -1.06632  -1.06545  -1.06393  -1.06390
 Alpha  occ. eigenvalues --   -1.05811  -1.05789  -1.05775  -1.05740  -1.04700
 Alpha  occ. eigenvalues --   -1.04457  -1.04456  -1.03557  -0.95229  -0.95144
 Alpha  occ. eigenvalues --   -0.95022  -0.95000  -0.88751  -0.85859  -0.84611
 Alpha  occ. eigenvalues --   -0.84568  -0.84452  -0.84422  -0.84061  -0.83885
 Alpha  occ. eigenvalues --   -0.83367  -0.83062  -0.81972  -0.81847  -0.79291
 Alpha  occ. eigenvalues --   -0.77252  -0.76084  -0.75883  -0.75831  -0.75743
 Alpha  occ. eigenvalues --   -0.75614  -0.74886  -0.74670  -0.74548  -0.74491
 Alpha  occ. eigenvalues --   -0.74410  -0.74277  -0.74081  -0.73894  -0.73747
 Alpha  occ. eigenvalues --   -0.73655  -0.73524  -0.73142  -0.73022  -0.72843
 Alpha  occ. eigenvalues --   -0.72572  -0.70736  -0.70342  -0.70052  -0.69898
 Alpha  occ. eigenvalues --   -0.69847  -0.69657  -0.69389  -0.69307  -0.69038
 Alpha  occ. eigenvalues --   -0.68163  -0.67284  -0.67197  -0.66975  -0.66313
 Alpha  occ. eigenvalues --   -0.66104  -0.63099  -0.62562  -0.61666  -0.61378
 Alpha  occ. eigenvalues --   -0.61093  -0.60859  -0.60496  -0.60337  -0.60125
 Alpha  occ. eigenvalues --   -0.59848  -0.59567  -0.59447  -0.59186  -0.58949
 Alpha  occ. eigenvalues --   -0.58844  -0.58422  -0.58310  -0.57663  -0.57320
 Alpha  occ. eigenvalues --   -0.57224  -0.55846  -0.55623  -0.55509  -0.54860
 Alpha  occ. eigenvalues --   -0.53693  -0.53575  -0.53515  -0.53311  -0.53040
 Alpha  occ. eigenvalues --   -0.52943  -0.52824  -0.52579  -0.51747  -0.51527
 Alpha  occ. eigenvalues --   -0.51278  -0.51092  -0.50885  -0.50831  -0.50665
 Alpha  occ. eigenvalues --   -0.49579  -0.49556  -0.49388  -0.49014  -0.48775
 Alpha  occ. eigenvalues --   -0.48673  -0.48268  -0.48064  -0.47968  -0.47876
 Alpha  occ. eigenvalues --   -0.47811  -0.46994  -0.46806  -0.46768  -0.46737
 Alpha  occ. eigenvalues --   -0.46568  -0.46523  -0.46518  -0.46429  -0.46411
 Alpha  occ. eigenvalues --   -0.46398  -0.46325  -0.46183  -0.45606  -0.45475
 Alpha  occ. eigenvalues --   -0.45363  -0.45344  -0.45271  -0.44641  -0.44602
 Alpha  occ. eigenvalues --   -0.44463  -0.44421  -0.44307  -0.44278  -0.44231
 Alpha  occ. eigenvalues --   -0.44213  -0.43837  -0.43244  -0.43099  -0.43074
 Alpha  occ. eigenvalues --   -0.42997  -0.42979  -0.42894  -0.42683  -0.42624
 Alpha  occ. eigenvalues --   -0.42473  -0.42334  -0.42134  -0.41993  -0.41867
 Alpha  occ. eigenvalues --   -0.41835  -0.41709  -0.41552  -0.41401  -0.41135
 Alpha  occ. eigenvalues --   -0.41112  -0.41029  -0.40946  -0.40867  -0.40710
 Alpha  occ. eigenvalues --   -0.40464  -0.40339  -0.40014  -0.39750  -0.39416
 Alpha  occ. eigenvalues --   -0.39186  -0.38614  -0.38504  -0.38317  -0.38159
 Alpha  occ. eigenvalues --   -0.38125  -0.37921  -0.37837  -0.37708  -0.37668
 Alpha  occ. eigenvalues --   -0.37452  -0.37327  -0.37273  -0.37270  -0.37201
 Alpha  occ. eigenvalues --   -0.36770  -0.36525  -0.36428  -0.36304  -0.35984
 Alpha  occ. eigenvalues --   -0.35945  -0.35784  -0.35670  -0.35514  -0.35385
 Alpha  occ. eigenvalues --   -0.35225  -0.35168  -0.34715  -0.34439  -0.34371
 Alpha  occ. eigenvalues --   -0.33466  -0.33170  -0.33027  -0.32910  -0.32765
 Alpha  occ. eigenvalues --   -0.32714  -0.32605  -0.32538  -0.32292  -0.32221
 Alpha  occ. eigenvalues --   -0.32169  -0.32137  -0.32081  -0.32046  -0.32034
 Alpha  occ. eigenvalues --   -0.31882  -0.31698  -0.31689  -0.31671  -0.31636
 Alpha  occ. eigenvalues --   -0.31504  -0.31429  -0.31414  -0.31329  -0.31318
 Alpha  occ. eigenvalues --   -0.30997  -0.29410  -0.29030  -0.27241  -0.26921
 Alpha  occ. eigenvalues --   -0.26738  -0.25358  -0.25135  -0.24935  -0.24789
 Alpha  occ. eigenvalues --   -0.24638  -0.24341  -0.24256  -0.23637  -0.23417
 Alpha  occ. eigenvalues --   -0.23360  -0.23275  -0.23074  -0.22942  -0.22742
 Alpha  occ. eigenvalues --   -0.21636  -0.21495  -0.21043  -0.20469  -0.20422
 Alpha  occ. eigenvalues --   -0.20035  -0.17140  -0.16845  -0.15508  -0.15322
 Alpha virt. eigenvalues --   -0.02174  -0.02084  -0.01016  -0.00805  -0.00416
 Alpha virt. eigenvalues --   -0.00079   0.00548   0.00650   0.00735   0.00832
 Alpha virt. eigenvalues --    0.00871   0.00952   0.01282   0.01532   0.01835

 Mulliken atomic charges:
              1
     1  C   -0.272400
     2  C    0.123289
     3  C    0.072660
     4  C    0.072894
     5  C    0.124151
     6  C    0.124864
     7  C    0.072463
     8  C    0.071920
     9  C    0.125481
    10  C   -0.247839
    11  C    0.293677
    12  C   -0.179293
    13  C   -0.204073
    14  C   -0.204388
    15  C   -0.181918
    16  C    0.294095
    17  C   -0.242730
    18  C   -0.242811
    19  C    0.291601
    20  C   -0.179888
    21  C   -0.204758
    22  C   -0.203964
    23  C   -0.180117
    24  C    0.298621
    25  C   -0.249956
    26  N   -0.666933
    27  N   -0.663930
    28  N   -0.664363
    29  N   -0.665087
    30  C    0.276962
    31  C    0.286907
    32  C    0.278642
    33  C    0.275294
    34  C    0.280128
    35  C    0.282068
    36  C    0.275465
    37  C    0.283418
    38  C   -0.176086
    39  C   -0.207210
    40  C    0.376756
    41  C   -0.184721
    42  C   -0.164490
    43  C   -0.171531
    44  C   -0.204332
    45  C    0.379798
    46  C   -0.192896
    47  C   -0.171433
    48  C   -0.223440
    49  C    0.312510
    50  C    0.346321
    51  C   -0.216387
    52  C   -0.174540
    53  C   -0.252930
    54  C    0.339124
    55  C    0.340500
    56  C   -0.222746
    57  C   -0.188229
    58  C   -0.188847
    59  C   -0.221753
    60  C    0.340016
    61  C    0.339920
    62  C   -0.255603
    63  C   -0.173546
    64  C   -0.206680
    65  C    0.376895
    66  C   -0.185623
    67  C   -0.167128
    68  C   -0.172306
    69  C   -0.193332
    70  C    0.378779
    71  C   -0.206457
    72  C   -0.174351
    73  C   -0.180814
    74  C   -0.213696
    75  C    0.339049
    76  C    0.338806
    77  C   -0.252381
    78  H    0.149866
    79  H    0.148607
    80  H    0.138622
    81  H    0.126676
    82  H    0.126602
    83  H    0.138839
    84  H    0.126836
    85  H    0.138605
    86  H    0.127077
    87  H    0.136668
    88  H    0.148984
    89  H    0.149603
    90  O   -0.509504
    91  C   -0.213154
    92  O   -0.510611
    93  C   -0.212667
    94  O   -0.510640
    95  O   -0.509758
    96  C   -0.213270
    97  C   -0.212605
    98  H    0.137567
    99  H    0.146093
   100  H    0.142960
   101  H    0.131605
   102  H    0.130944
   103  H    0.144425
   104  H    0.143022
   105  H    0.150362
   106  H    0.144079
   107  H    0.131744
   108  H    0.143509
   109  H    0.150642
   110  H    0.131152
   111  H    0.145328
   112  H    0.137696
   113  H    0.145319
   114  H    0.150228
   115  H    0.148853
   116  H    0.167614
   117  H    0.150480
   118  H    0.150427
   119  H    0.167872
   120  H    0.167519
   121  H    0.148710
   122  H    0.150400
   123  H    0.148156
   124  H    0.151995
   125  H    0.168482
   126  O   -0.502126
   127  H    0.144468
   128  H    0.137258
   129  H    0.146501
   130  H    0.140762
   131  H    0.132397
   132  O   -0.501791
   133  H    0.143468
   134  O   -0.502012
   135  H    0.144325
   136  H    0.138743
   137  H    0.146416
   138  H    0.144050
   139  H    0.133951
   140  O   -0.521999
   141  H    0.146779
   142  O   -0.501794
   143  C   -0.213482
   144  O   -0.511054
   145  C   -0.213765
   146  O   -0.501843
   147  C   -0.214040
   148  O   -0.501229
   149  C   -0.212495
   150  H    0.167236
   151  H    0.150549
   152  H    0.148887
   153  H    0.168384
   154  H    0.148854
   155  H    0.148327
   156  H    0.167369
   157  H    0.149515
   158  H    0.151638
   159  H    0.150731
   160  H    0.152607
   161  H    0.168935
   162  C   -0.213898
   163  C   -0.213625
   164  C   -0.210106
   165  C   -0.213842
   166  H    0.167430
   167  H    0.150871
   168  H    0.152419
   169  H    0.168497
   170  H    0.153133
   171  H    0.150098
   172  H    0.167321
   173  H    0.154272
   174  H    0.149423
   175  H    0.137280
   176  H    0.162468
   177  H    0.156638
 Sum of Mulliken atomic charges =   0.00000

 Dipole moment (field-independent basis, Debye):
    X=              0.6191    Y=              0.7509    Z=              0.9889  Tot=              1.3874
 Quadrupole moment (field-independent basis, Debye-Ang):
   XX=           -500.4159   YY=           -551.3433   ZZ=           -537.1907
   XY=             -9.2615   XZ=             -8.3631   YZ=             10.7710

 Normal termination of Gaussian 09 at Sat Aug  9 03:01:43 2014.
