 Gaussian 09, Revision A.02,
 Gaussian 09:  EM64L-G09RevA.02 11-Jun-2009

 -------------------
 #p sp B3LYP/cc-pVDZ
 -------------------

 ------------------------------------------
 Auto Spiro; and yes I said yes I will Yes.
 ------------------------------------------
 Symbolic Z-matrix:
 Charge =  0 Multiplicity = 1

                         Standard orientation:
 ---------------------------------------------------------------------
 Center     Atomic      Atomic             Coordinates (Angstroms)
 Number     Number       Type             X           Y           Z
 ---------------------------------------------------------------------
      1          6           0        0.018671   -0.040829    0.127087
      2          6           0        0.567933   -1.095786    1.095021
      3          6           0        0.381753   -0.686472    2.430244
      4          6           0       -0.283059    0.617860    2.435947
      5          6           0       -0.505540    1.019291    1.103837
      6          6           0        1.057614    0.506655   -0.859427
      7          6           0        0.631934    0.305198   -2.186787
      8          6           0       -0.671467   -0.360807   -2.169140
      9          6           0       -1.049998   -0.583014   -0.830734
     10          6           0        2.267295    1.118325   -0.571558
     11          6           0        3.083668    1.564717   -1.629862
     12          6           0        2.656915    1.360832   -2.957910
     13          6           0        1.446865    0.731122   -3.238215
     14          6           0       -0.692107    1.451741    3.478945
     15          6           0       -1.305880    2.669103    3.188501
     16          6           0       -1.536547    3.066395    1.857722
     17          6           0       -1.126049    2.221344    0.807172
     18          6           0        1.177516   -2.300436    0.787225
     19          6           0        1.609817   -3.143935    1.830767
     20          6           0        1.418262   -2.735771    3.166174
     21          6           0        0.817698   -1.515163    3.466405
     22          6           0       -1.521897   -0.770423   -3.199212
     23          6           0       -2.723140   -1.401755   -2.887536
     24          6           0       -3.104331   -1.623339   -1.549341
     25          6           0       -2.250132   -1.198891   -0.511890
     26          7           0        4.321891    2.209053   -1.379210
     27          7           0       -2.165596    4.305122    1.559073
     28          7           0        2.208054   -4.390875    1.528574
     29          7           0       -4.341305   -2.253435   -1.265127
     30          6           0       -5.488106   -1.905679   -2.033945
     31          6           0        1.683569   -5.169813    0.457672
     32          6           0       -4.491068   -3.124264   -0.152919
     33          6           0        3.205732   -4.955549    2.369252
     34          6           0        4.520020    2.986779   -0.202098
     35          6           0        5.442413    1.912856   -2.207910
     36          6           0       -3.146707    4.852298    2.433772
     37          6           0       -1.618145    5.123731    0.529440
     38          6           0       -3.139730    6.207472    2.777589
     39          6           0       -4.123009    6.748435    3.609961
     40          6           0       -5.125177    5.926897    4.133534
     41          6           0       -5.133979    4.564079    3.802461
     42          6           0       -4.167601    4.037776    2.957851
     43          6           0        5.695531    2.877598    0.546052
     44          6           0        5.910354    3.669486    1.676962
     45          6           0        4.930084    4.575221    2.091680
     46          6           0        3.741672    4.681211    1.354299
     47          6           0        3.543580    3.907555    0.219891
     48          6           0        6.224920    2.934564   -2.779616
     49          6           0        7.355891    2.627222   -3.544899
     50          6           0        7.707589    1.295810   -3.780681
     51          6           0        6.919404    0.268377   -3.241794
     52          6           0        5.816492    0.581756   -2.461037
     53          6           0       -2.433144    5.704659   -0.460782
     54          6           0       -1.886348    6.549529   -1.433635
     55          6           0       -0.513145    6.805132   -1.455446
     56          6           0        0.314549    6.210550   -0.491621
     57          6           0       -0.239685    5.395524    0.484932
     58          6           0        0.329523   -5.494231    0.401222
     59          6           0       -0.217245   -6.239075   -0.648042
     60          6           0        0.629316   -6.694840   -1.660888
     61          6           0        1.999543   -6.392780   -1.625354
     62          6           0        2.526702   -5.625146   -0.589170
     63          6           0        4.245921   -4.169895    2.880133
     64          6           0        5.230088   -4.719861    3.702669
     65          6           0        5.204607   -6.085563    4.007752
     66          6           0        4.176721   -6.882153    3.487532
     67          6           0        3.186892   -6.323421    2.689034
     68          6           0       -3.485452   -4.052088    0.177395
     69          6           0       -3.642128   -4.914292    1.252385
     70          6           0       -4.816642   -4.895855    2.019705
     71          6           0       -5.826913   -3.987732    1.693911
     72          6           0       -5.654154   -3.105507    0.623182
     73          6           0       -5.915363   -0.582852   -2.128355
     74          6           0       -7.026660   -0.208561   -2.889871
     75          6           0       -7.747549   -1.199535   -3.558642
     76          6           0       -7.345353   -2.542143   -3.477248
     77          6           0       -6.219784   -2.897935   -2.737853
     78          1           0       -2.537358   -1.353474    0.523281
     79          1           0        1.324077   -2.602741   -0.244759
     80          1           0        1.738455   -3.390455    3.969618
     81          1           0        0.676473   -1.228759    4.505758
     82          1           0       -0.522103    1.171259    4.515483
     83          1           0       -1.609291    3.325948    3.996762
     84          1           0       -1.250034   -0.616355   -4.240674
     85          1           0       -3.381286   -1.736944   -3.682654
     86          1           0        1.142756    0.588888   -4.272362
     87          1           0        3.288624    1.700260   -3.772436
     88          1           0       -1.294590    2.519649   -0.223128
     89          1           0        2.588815    1.253783    0.455766
     90          8           0       -4.872482   -5.799036    3.048070
     91          6           0       -6.026922   -5.799055    3.868008
     92          8           0        6.124025   -6.730398    4.793175
     93          6           0        7.185344   -5.966664    5.336464
     94          8           0       -6.129882    6.346108    4.964510
     95          8           0        5.029078    5.394254    3.183977
     96          6           0        6.209939    5.323756    3.962825
     97          6           0       -6.161399    7.713972    5.330206
     98          1           0       -5.920294    3.935737    4.209628
     99          1           0       -4.193828    2.982834    2.703143
    100          1           0        6.460673    2.172097    0.238474
    101          1           0       -4.085186    7.805790    3.846647
    102          1           0       -2.361854    6.854554    2.385404
    103          1           0        2.990272    5.392829    1.683565
    104          1           0        2.621600    4.008839   -0.344143
    105          1           0       -6.441301   -2.396137    0.387943
    106          1           0       -6.745563   -3.942129    2.268220
    107          1           0       -2.866965   -5.629276    1.512530
    108          1           0       -2.577079   -4.091712   -0.415125
    109          1           0        6.016698   -4.076848    4.081484
    110          1           0        4.287871   -3.114409    2.631058
    111          1           0        4.163370   -7.939603    3.733732
    112          1           0        2.389128   -6.950507    2.303639
    113          1           0        6.816400   -5.168330    5.995249
    114          1           0        7.809082   -5.519646    4.550036
    115          1           0        7.789781   -6.663401    5.920978
    116          1           0        7.100057    5.586786    3.374876
    117          1           0        6.350927    4.324294    4.396818
    118          1           0        6.083427    6.050215    4.768099
    119          1           0       -7.027987    7.831173    5.984111
    120          1           0       -6.279172    8.366042    4.453800
    121          1           0       -5.254760    8.009608    5.875887
    122          1           0       -6.933602   -6.034788    3.293521
    123          1           0       -6.165880   -4.833252    4.372922
    124          1           0       -5.864679   -6.576338    4.617529
    125          1           0        2.617266   -6.755235   -2.437551
    126          8           0        3.834778   -5.263337   -0.501132
    127          1           0       -1.277682   -6.460596   -0.650771
    128          1           0       -0.316433   -5.139468    1.198977
    129          1           0       -5.352095    0.175653   -1.592831
    130          1           0       -7.317096    0.833931   -2.936780
    131          1           0       -7.925737   -3.276034   -4.022400
    132          8           0       -5.747724   -4.170117   -2.638291
    133          1           0       -2.567338    6.978117   -2.158791
    134          8           0       -3.797370    5.532396   -0.481557
    135          1           0        1.379509    6.418644   -0.513086
    136          1           0        0.398572    4.949879    1.242175
    137          1           0        5.219937   -0.214010   -2.025186
    138          1           0        7.202182   -0.762513   -3.428600
    139          1           0        7.926175    3.457255   -3.943845
    140          8           0        5.963551    4.266504   -2.560628
    141          8           0        0.230172   -7.440141   -2.734226
    142          6           0       -1.147073   -7.760690   -2.846208
    143          8           0        8.785564    0.898921   -4.520513
    144          6           0        9.616434    1.901897   -5.080811
    145          8           0        0.111167    7.606364   -2.369160
    146          6           0       -0.685280    8.237791   -3.357816
    147          8           0       -8.857882   -0.975808   -4.323503
    148          6           0       -9.321814    0.358344   -4.450077
    149          1           0       -1.245794   -8.337891   -3.767683
    150          1           0       -1.767330   -6.857298   -2.914269
    151          1           0       -1.490765   -8.369253   -1.999155
    152          1           0      -10.201994    0.309850   -5.094027
    153          1           0       -8.567025    1.006126   -4.915514
    154          1           0       -9.606965    0.780975   -3.477472
    155          1           0        0.002860    8.829026   -3.965055
    156          1           0       -1.435576    8.902123   -2.908616
    157          1           0       -1.193743    7.503730   -3.997228
    158          1           0       10.409047    1.372381   -5.612958
    159          1           0       10.062379    2.537659   -4.304324
    160          1           0        9.064968    2.534930   -5.788942
    161          6           0       -6.463969   -5.208745   -3.285791
    162          6           0       -4.248610    4.221527   -0.826962
    163          1           0        6.838817    3.559754    2.225886
    164          6           0        4.788037    4.777477   -3.192016
    165          6           0        4.734458   -5.730092   -1.493255
    166          1           0        5.714487   -5.342006   -1.210393
    167          1           0        4.467313   -5.354201   -2.489754
    168          1           0        4.770771   -6.826910   -1.519214
    169          1           0       -5.923899   -6.129137   -3.056824
    170          1           0       -6.490852   -5.062976   -4.373877
    171          1           0       -7.491365   -5.286473   -2.907155
    172          1           0       -5.339942    4.263513   -0.805384
    173          1           0       -3.899104    3.469656   -0.112248
    174          1           0       -3.912531    3.948363   -1.836472
    175          1           0        4.866285    4.692478   -4.284623
    176          1           0        4.728907    5.831601   -2.912867
    177          1           0        3.885057    4.260764   -2.851560
 ---------------------------------------------------------------------

 SCF Done:  E(RB3LYP) =  -4406.60835153     A.U. after   15 cycles

 The electronic state is 1-A.
 Alpha  occ. eigenvalues --  -19.17187 -19.17094 -19.16844 -19.16801 -19.16645
 Alpha  occ. eigenvalues --  -19.16565 -19.16169 -19.16119 -19.16109 -19.15979
 Alpha  occ. eigenvalues --  -19.14943 -19.14906 -14.34820 -14.34763 -14.34486
 Alpha  occ. eigenvalues --  -14.34243 -10.24806 -10.24692 -10.24324 -10.24308
 Alpha  occ. eigenvalues --  -10.24282 -10.24273 -10.24234 -10.24166 -10.24061
 Alpha  occ. eigenvalues --  -10.24027 -10.23734 -10.23703 -10.23679 -10.23650
 Alpha  occ. eigenvalues --  -10.23605 -10.23569 -10.23522 -10.23489 -10.23405
 Alpha  occ. eigenvalues --  -10.23375 -10.23323 -10.23175 -10.22624 -10.22572
 Alpha  occ. eigenvalues --  -10.21880 -10.21755 -10.21716 -10.21533 -10.21387
 Alpha  occ. eigenvalues --  -10.21360 -10.21349 -10.21293 -10.21219 -10.21192
 Alpha  occ. eigenvalues --  -10.20940 -10.20889 -10.20163 -10.18877 -10.18620
 Alpha  occ. eigenvalues --  -10.18570 -10.18353 -10.18217 -10.18187 -10.18184
 Alpha  occ. eigenvalues --  -10.18174 -10.18152 -10.18112 -10.18078 -10.17999
 Alpha  occ. eigenvalues --  -10.17970 -10.17967 -10.17965 -10.17937 -10.17925
 Alpha  occ. eigenvalues --  -10.17912 -10.17887 -10.17877 -10.17869 -10.17849
 Alpha  occ. eigenvalues --  -10.17835 -10.17818 -10.17803 -10.17769 -10.17763
 Alpha  occ. eigenvalues --  -10.17710 -10.17675 -10.17662 -10.17659 -10.17659
 Alpha  occ. eigenvalues --  -10.17630 -10.17616 -10.17610 -10.17609 -10.17602
 Alpha  occ. eigenvalues --  -10.17594 -10.17571 -10.17506 -10.17473 -10.17466
 Alpha  occ. eigenvalues --  -10.17409 -10.17373 -10.17371 -10.17333 -10.17202
 Alpha  occ. eigenvalues --  -10.17075  -1.07052  -1.06720  -1.06524  -1.06499
 Alpha  occ. eigenvalues --   -1.06454  -1.06192  -1.05789  -1.05740  -1.05736
 Alpha  occ. eigenvalues --   -1.05589  -1.04708  -1.04690  -0.95280  -0.95239
 Alpha  occ. eigenvalues --   -0.95195  -0.94919  -0.88975  -0.86084  -0.85044
 Alpha  occ. eigenvalues --   -0.84836  -0.84819  -0.84636  -0.84266  -0.84156
 Alpha  occ. eigenvalues --   -0.83641  -0.83384  -0.82298  -0.82151  -0.79523
 Alpha  occ. eigenvalues --   -0.77483  -0.76427  -0.76045  -0.75866  -0.75746
 Alpha  occ. eigenvalues --   -0.75694  -0.75515  -0.75184  -0.75164  -0.74978
 Alpha  occ. eigenvalues --   -0.74686  -0.74507  -0.74303  -0.74098  -0.73777
 Alpha  occ. eigenvalues --   -0.73677  -0.73655  -0.73359  -0.73110  -0.72987
 Alpha  occ. eigenvalues --   -0.72729  -0.70830  -0.70594  -0.70300  -0.69826
 Alpha  occ. eigenvalues --   -0.69776  -0.69709  -0.69637  -0.69484  -0.68747
 Alpha  occ. eigenvalues --   -0.68671  -0.67673  -0.67424  -0.67260  -0.66236
 Alpha  occ. eigenvalues --   -0.66141  -0.63215  -0.62684  -0.61867  -0.61371
 Alpha  occ. eigenvalues --   -0.61094  -0.60808  -0.60744  -0.60531  -0.60287
 Alpha  occ. eigenvalues --   -0.60128  -0.59757  -0.59656  -0.59507  -0.59111
 Alpha  occ. eigenvalues --   -0.58976  -0.58321  -0.58177  -0.57674  -0.57582
 Alpha  occ. eigenvalues --   -0.57196  -0.56217  -0.55893  -0.55748  -0.55117
 Alpha  occ. eigenvalues --   -0.54188  -0.53789  -0.53444  -0.53359  -0.52933
 Alpha  occ. eigenvalues --   -0.52770  -0.52758  -0.52628  -0.51860  -0.51586
 Alpha  occ. eigenvalues --   -0.51446  -0.51193  -0.51005  -0.50718  -0.50693
 Alpha  occ. eigenvalues --   -0.50173  -0.50056  -0.49777  -0.49475  -0.49412
 Alpha  occ. eigenvalues --   -0.48828  -0.48712  -0.48402  -0.48159  -0.47863
 Alpha  occ. eigenvalues --   -0.47825  -0.47148  -0.47024  -0.47001  -0.46984
 Alpha  occ. eigenvalues --   -0.46722  -0.46681  -0.46661  -0.46582  -0.46239
 Alpha  occ. eigenvalues --   -0.46182  -0.46116  -0.46087  -0.46069  -0.46053
 Alpha  occ. eigenvalues --   -0.45970  -0.45778  -0.45072  -0.44993  -0.44756
 Alpha  occ. eigenvalues --   -0.44334  -0.44302  -0.44228  -0.43966  -0.43944
 Alpha  occ. eigenvalues --   -0.43900  -0.43747  -0.43492  -0.43259  -0.43242
 Alpha  occ. eigenvalues --   -0.43093  -0.42894  -0.42823  -0.42780  -0.42650
 Alpha  occ. eigenvalues --   -0.42527  -0.42278  -0.41877  -0.41753  -0.41692
 Alpha  occ. eigenvalues --   -0.41641  -0.41552  -0.41465  -0.41245  -0.41168
 Alpha  occ. eigenvalues --   -0.41029  -0.40966  -0.40849  -0.40797  -0.40755
 Alpha  occ. eigenvalues --   -0.40670  -0.40586  -0.40291  -0.40183  -0.39779
 Alpha  occ. eigenvalues --   -0.39445  -0.38763  -0.38637  -0.38454  -0.38428
 Alpha  occ. eigenvalues --   -0.38167  -0.38027  -0.37938  -0.37866  -0.37760
 Alpha  occ. eigenvalues --   -0.37493  -0.37395  -0.37328  -0.37227  -0.37141
 Alpha  occ. eigenvalues --   -0.37036  -0.36813  -0.36806  -0.36693  -0.36290
 Alpha  occ. eigenvalues --   -0.36026  -0.35793  -0.35572  -0.35441  -0.35318
 Alpha  occ. eigenvalues --   -0.35128  -0.35111  -0.34928  -0.34717  -0.34663
 Alpha  occ. eigenvalues --   -0.34537  -0.34485  -0.34039  -0.33858  -0.33614
 Alpha  occ. eigenvalues --   -0.33382  -0.33270  -0.33177  -0.33108  -0.32846
 Alpha  occ. eigenvalues --   -0.32656  -0.32596  -0.32368  -0.32251  -0.32102
 Alpha  occ. eigenvalues --   -0.31969  -0.31945  -0.31906  -0.31856  -0.31593
 Alpha  occ. eigenvalues --   -0.31264  -0.31219  -0.31049  -0.30310  -0.29855
 Alpha  occ. eigenvalues --   -0.29752  -0.29447  -0.27741  -0.27511  -0.26992
 Alpha  occ. eigenvalues --   -0.26823  -0.25566  -0.25028  -0.24879  -0.24608
 Alpha  occ. eigenvalues --   -0.24518  -0.24501  -0.24393  -0.23982  -0.23916
 Alpha  occ. eigenvalues --   -0.23661  -0.23573  -0.23365  -0.23095  -0.22699
 Alpha  occ. eigenvalues --   -0.21961  -0.21871  -0.21831  -0.21573  -0.21379
 Alpha  occ. eigenvalues --   -0.20936  -0.17637  -0.17501  -0.15866  -0.15676
 Alpha virt. eigenvalues --   -0.02431  -0.02278  -0.01597  -0.01398  -0.00985
 Alpha virt. eigenvalues --   -0.00639  -0.00124   0.00174   0.00187   0.00271
 Alpha virt. eigenvalues --    0.00433   0.00515   0.00649   0.00724   0.01130

 Mulliken atomic charges:
              1
     1  C   -0.299052
     2  C    0.097285
     3  C    0.042330
     4  C    0.044366
     5  C    0.099238
     6  C    0.094831
     7  C    0.041406
     8  C    0.041351
     9  C    0.096258
    10  C    0.007542
    11  C    0.090811
    12  C    0.060888
    13  C   -0.014680
    14  C   -0.013769
    15  C    0.052613
    16  C    0.081106
    17  C    0.019582
    18  C    0.020599
    19  C    0.094573
    20  C    0.050871
    21  C   -0.013564
    22  C   -0.015209
    23  C    0.067981
    24  C    0.087036
    25  C    0.009905
    26  N   -0.284487
    27  N   -0.285165
    28  N   -0.275522
    29  N   -0.276327
    30  C   -0.009472
    31  C   -0.009310
    32  C    0.091220
    33  C    0.085070
    34  C    0.079611
    35  C    0.013031
    36  C    0.079968
    37  C    0.017063
    38  C    0.031359
    39  C   -0.005037
    40  C    0.117859
    41  C    0.048314
    42  C    0.045372
    43  C    0.036097
    44  C   -0.002999
    45  C    0.119990
    46  C    0.039772
    47  C    0.043084
    48  C    0.062666
    49  C    0.017181
    50  C    0.138611
    51  C    0.050273
    52  C    0.068283
    53  C    0.065675
    54  C    0.018214
    55  C    0.139851
    56  C    0.041818
    57  C    0.065872
    58  C    0.073273
    59  C   -0.013826
    60  C    0.119931
    61  C   -0.006984
    62  C    0.153211
    63  C    0.042914
    64  C   -0.005530
    65  C    0.116952
    66  C    0.043977
    67  C    0.037872
    68  C    0.043558
    69  C    0.034989
    70  C    0.117422
    71  C   -0.005532
    72  C    0.026524
    73  C    0.074259
    74  C   -0.007969
    75  C    0.119991
    76  C   -0.009543
    77  C    0.152065
    78  H   -0.040109
    79  H   -0.044821
    80  H   -0.032874
    81  H   -0.058008
    82  H   -0.056734
    83  H   -0.032330
    84  H   -0.059656
    85  H   -0.039699
    86  H   -0.059186
    87  H   -0.041643
    88  H   -0.051071
    89  H   -0.037927
    90  O   -0.282285
    91  C    0.132535
    92  O   -0.284821
    93  C    0.132220
    94  O   -0.284236
    95  O   -0.281837
    96  C    0.131832
    97  C    0.131973
    98  H   -0.034484
    99  H   -0.029156
   100  H   -0.032795
   101  H   -0.037815
   102  H   -0.030888
   103  H   -0.029436
   104  H   -0.025048
   105  H   -0.035453
   106  H   -0.039417
   107  H   -0.029943
   108  H   -0.023264
   109  H   -0.038168
   110  H   -0.029165
   111  H   -0.035870
   112  H   -0.033649
   113  H    0.023118
   114  H    0.022517
   115  H    0.029963
   116  H    0.024082
   117  H    0.023901
   118  H    0.030895
   119  H    0.030336
   120  H    0.024154
   121  H    0.023567
   122  H    0.021434
   123  H    0.024509
   124  H    0.030870
   125  H   -0.035309
   126  O   -0.271141
   127  H   -0.034073
   128  H   -0.033423
   129  H   -0.038424
   130  H   -0.039914
   131  H   -0.034982
   132  O   -0.270950
   133  H   -0.044660
   134  O   -0.297607
   135  H   -0.028989
   136  H   -0.027089
   137  H   -0.028274
   138  H   -0.035404
   139  H   -0.043860
   140  O   -0.296739
   141  O   -0.282835
   142  C    0.129915
   143  O   -0.282175
   144  C    0.133008
   145  O   -0.281402
   146  C    0.133041
   147  O   -0.282405
   148  C    0.132044
   149  H    0.029634
   150  H    0.032437
   151  H    0.026953
   152  H    0.032625
   153  H    0.026478
   154  H    0.026695
   155  H    0.031907
   156  H    0.027318
   157  H    0.026069
   158  H    0.032222
   159  H    0.027639
   160  H    0.025588
   161  C    0.134552
   162  C    0.127395
   163  H   -0.038477
   164  C    0.129399
   165  C    0.134686
   166  H    0.035600
   167  H    0.027098
   168  H    0.028190
   169  H    0.034069
   170  H    0.026132
   171  H    0.028976
   172  H    0.027669
   173  H    0.041201
   174  H    0.012952
   175  H    0.008099
   176  H    0.032581
   177  H    0.040055
 Sum of Mulliken atomic charges =   0.00000

 Dipole moment (field-independent basis, Debye):
    X=             -1.3726    Y=              1.2995    Z=             -3.0282  Tot=              3.5696
 Quadrupole moment (field-independent basis, Debye-Ang):
   XX=           -496.1105   YY=           -540.4904   ZZ=           -534.2249
   XY=             10.1345   XZ=              9.8275   YZ=              1.2004

 Normal termination of Gaussian 09 at Mon Feb  2 21:57:34 2015.
