 Gaussian 09, Revision A.02,
 Gaussian 09:  EM64L-G09RevA.02 11-Jun-2009

 -------------------
 #p sp B3LYP/cc-pVDZ
 -------------------

 ------------------------------------------
 Auto Spiro; and yes I said yes I will Yes.
 ------------------------------------------
 Symbolic Z-matrix:
 Charge =  0 Multiplicity = 1

                         Standard orientation:
 ---------------------------------------------------------------------
 Center     Atomic      Atomic             Coordinates (Angstroms)
 Number     Number       Type             X           Y           Z
 ---------------------------------------------------------------------
      1          6           0       -0.000038    0.000107   -0.000075
      2          6           0        0.860731   -0.827995    0.980131
      3          6           0        0.540416   -0.489927    2.309086
      4          6           0       -0.540040    0.490808    2.309066
      5          6           0       -0.860723    0.828412    0.980083
      6          6           0        0.860326    0.828734   -0.980254
      7          6           0        0.539887    0.490871   -2.309231
      8          6           0       -0.540201   -0.490277   -2.309237
      9          6           0       -0.860416   -0.828397   -0.980266
     10          6           0        1.875284    1.741297   -0.710473
     11          6           0        2.589939    2.311525   -1.781238
     12          6           0        2.262647    1.967685   -3.102133
     13          6           0        1.244201    1.060764   -3.370736
     14          6           0       -1.244444    1.060543    3.370592
     15          6           0       -2.263300    1.967001    3.102003
     16          6           0       -2.590935    2.310487    1.781102
     17          6           0       -1.876141    1.740480    0.710315
     18          6           0        1.875965   -1.740274    0.710396
     19          6           0        2.591001   -2.310021    1.781176
     20          6           0        2.263781   -1.965998    3.102046
     21          6           0        1.245086   -1.059351    3.370598
     22          6           0       -1.244648   -1.060017   -3.370731
     23          6           0       -2.262971   -1.967082   -3.102146
     24          6           0       -2.590009   -2.311230   -1.781269
     25          6           0       -1.875245   -1.741115   -0.710510
     26          7           0        3.665227    3.218266   -1.546548
     27          7           0       -3.666793    3.216590    1.546479
     28          7           0        3.666604   -3.216356    1.546544
     29          7           0       -3.665108   -3.218171   -1.546558
     30          6           0       -4.844728   -3.112898   -2.329940
     31          6           0        3.489192   -4.328702    0.685763
     32          6           0       -3.486668   -4.330679   -0.686189
     33          6           0        4.845963   -3.110618    2.330271
     34          6           0        3.487089    4.330696   -0.686031
     35          6           0        4.844804    3.112697   -2.329947
     36          6           0       -4.846115    3.110447    2.330176
     37          6           0       -3.489613    4.328935    0.685661
     38          6           0       -5.325664    4.185840    3.111614
     39          6           0       -6.499916    4.061098    3.866451
     40          6           0       -7.179946    2.846661    3.882499
     41          6           0       -6.720255    1.759270    3.143514
     42          6           0       -5.571983    1.895771    2.353918
     43          6           0        4.380850    4.578763    0.374729
     44          6           0        4.236473    5.712891    1.186510
     45          6           0        3.192783    6.600649    0.940722
     46          6           0        2.294554    6.385965   -0.104860
     47          6           0        2.449926    5.261588   -0.925124
     48          6           0        5.323937    4.188298   -3.111350
     49          6           0        6.498425    4.064135   -3.865916
     50          6           0        7.179117    2.850065   -3.881721
     51          6           0        6.719862    1.762480   -3.142752
     52          6           0        5.571343    1.898418   -2.353413
     53          6           0       -4.383980    4.576242   -0.374768
     54          6           0       -4.240707    5.710327   -1.186802
     55          6           0       -3.197514    6.598827   -0.941597
     56          6           0       -2.298699    6.384901    0.103639
     57          6           0       -2.452952    5.260543    0.924143
     58          6           0        2.452436   -5.260164    0.924405
     59          6           0        2.298026   -6.384596    0.104028
     60          6           0        3.196740   -6.598704   -0.941257
     61          6           0        4.239991   -5.710321   -1.186639
     62          6           0        4.383445   -4.576175   -0.374720
     63          6           0        5.572360   -1.896255    2.353859
     64          6           0        6.720723   -1.760186    3.143398
     65          6           0        7.179923   -2.847704    3.882507
     66          6           0        6.499334   -4.061828    3.866635
     67          6           0        5.325009   -4.186131    3.111830
     68          6           0       -2.449416   -5.261398   -0.925555
     69          6           0       -2.293799   -6.385874   -0.105471
     70          6           0       -3.191851   -6.600799    0.940216
     71          6           0       -4.235602   -5.713192    1.186290
     72          6           0       -4.380235   -4.578973    0.374675
     73          6           0       -5.571633   -1.898831   -2.353305
     74          6           0       -6.720244   -1.763195   -3.142559
     75          6           0       -7.179217   -2.850877   -3.881564
     76          6           0       -6.498150   -4.064735   -3.865872
     77          6           0       -5.323573   -4.188589   -3.111388
     78          1           0       -2.148843   -1.993341    0.309924
     79          1           0        2.149658   -1.992402   -0.310036
     80          1           0        2.814253   -2.429001    3.914674
     81          1           0        1.001041   -0.804636    4.399377
     82          1           0       -1.000083    0.806191    4.399386
     83          1           0       -2.813607    2.430257    3.914598
     84          1           0       -1.000706   -0.805237   -4.399518
     85          1           0       -2.813250   -2.430360   -3.914750
     86          1           0        1.000078    0.806194   -4.399532
     87          1           0        2.812850    2.431075   -3.914724
     88          1           0       -2.150188    1.992213   -0.310119
     89          1           0        2.149096    1.993278    0.309962
     90          1           0       -7.263968    0.822795    3.164527
     91          8           0       -5.074014    0.899391    1.573861
     92          8           0        5.377834    3.657988    0.537536
     93          1           0        4.919829    5.897600    2.006492
     94          1           0       -6.864674    4.891357    4.458890
     95          8           0       -4.568862    5.322097    3.090318
     96          1           0        1.509474    7.106234   -0.302698
     97          8           0        1.671896    4.994429   -2.003809
     98          8           0       -5.377269   -3.658312    0.537776
     99          1           0       -4.918811   -5.898078    2.006355
    100          1           0       -1.508674   -7.106033   -0.303531
    101          8           0       -1.671598   -4.993997   -2.004329
    102          1           0        7.264883   -0.823967    3.164270
    103          8           0        5.074806   -0.899743    1.573723
    104          1           0        6.863718   -4.892174    4.459180
    105          8           0        4.567678   -5.322032    3.090671
    106          1           0        4.923715   -5.894557   -2.006424
    107          8           0        5.379940   -3.654813   -0.537156
    108          1           0        3.084581   -7.477068   -1.571529
    109          1           0        1.513265   -7.105306    0.301515
    110          8           0        1.673790   -4.993460    2.002753
    111          8           0       -5.074299   -0.902128   -1.573266
    112          1           0       -7.264768   -0.827185   -3.163281
    113          1           0       -8.079616   -2.749863   -4.481628
    114          1           0       -6.862379   -4.895230   -4.458304
    115          8           0       -4.565816   -5.324204   -3.090427
    116          1           0       -4.924516    5.894426   -2.006546
    117          8           0       -5.380436    3.654799   -0.537005
    118          1           0       -3.085477    7.477137   -1.571966
    119          1           0       -1.513985    7.105700    0.300983
    120          8           0       -1.674182    4.994028    2.002460
    121          8           0        5.073750    0.901826   -1.573390
    122          1           0        7.264097    0.826305   -3.163579
    123          1           0        8.079439    2.748806   -4.481860
    124          1           0        6.862872    4.894549   -4.458328
    125          8           0        4.566529    5.324144   -3.090262
    126          1           0       -8.080083    2.744958    4.482840
    127          1           0        3.079916    7.478995    1.570893
    128          1           0        8.080128   -2.746346    4.482806
    129          1           0       -3.078797   -7.479223    1.570245
    130          6           0       -4.999076   -6.443869   -3.838632
    131          6           0       -0.629680   -5.891975   -2.345129
    132          6           0        6.403229   -3.933033   -1.476496
    133          6           0        5.613997    0.407037    1.709575
    134          6           0        5.000107    6.443725   -3.838413
    135          6           0        0.630176    5.892697   -2.344429
    136          6           0       -6.403773    3.932824   -1.476347
    137          6           0       -5.612542   -0.407640    1.709955
    138          1           0       -5.981605   -6.803049   -3.503603
    139          1           0       -4.254272   -7.222950   -3.664192
    140          1           0       -5.046590   -6.221774   -4.913517
    141          1           0       -0.175558   -5.483841   -3.249944
    142          1           0       -1.018303   -6.898287   -2.556023
    143          1           0        0.131992   -5.950368   -1.558885
    144          1           0        6.902817   -4.886013   -1.258357
    145          1           0        7.124126   -3.118778   -1.381065
    146          1           0        6.018463   -3.956626   -2.505187
    147          1           0        5.052731    1.040139    1.023744
    148          1           0        6.676301    0.434447    1.428643
    149          1           0        5.506353    0.771897    2.739571
    150          1           0        4.255582    7.223045   -3.663846
    151          1           0        5.047455    6.221699   -4.913319
    152          1           0        5.982786    6.802543   -3.503437
    153          1           0        0.175933    5.484822   -3.249303
    154          1           0        1.019018    6.898959   -2.555163
    155          1           0       -0.131469    5.951131   -1.558160
    156          1           0       -7.124616    3.118535   -1.380785
    157          1           0       -6.019040    3.956306   -2.505053
    158          1           0       -6.903423    4.885798   -1.258324
    159          1           0       -5.051057   -1.040557    1.024135
    160          1           0       -5.504597   -0.772309    2.739985
    161          1           0       -6.674862   -0.435619    1.429140
    162          6           0       -5.613963    0.404461   -1.709104
    163          6           0       -0.634099    5.894022    2.343522
    164          6           0        6.400086    3.936396    1.477937
    165          6           0        5.612997   -0.404926   -1.709326
    166          6           0        0.633739   -5.893401    2.344091
    167          6           0       -6.399373   -3.936959    1.478273
    168          6           0        5.001399   -6.441661    3.838668
    169          6           0       -5.003035    6.441558    3.838298
    170          1           0       -6.676227    0.431524   -1.427991
    171          1           0       -5.506618    0.769293   -2.739140
    172          1           0       -5.052822    1.037803   -1.023403
    173          1           0        5.051731   -1.038119   -1.023592
    174          1           0        6.675279   -0.432328   -1.428315
    175          1           0        5.505439   -0.769694   -2.739363
    176          1           0        4.257055   -7.221105    3.663880
    177          1           0        5.048579   -6.219828    4.913622
    178          1           0        5.984188   -6.800217    3.503737
    179          1           0       -0.128267   -5.953204    1.558270
    180          1           0        0.179335   -5.486138    3.249159
    181          1           0        1.024396   -6.898975    2.554730
    182          1           0       -7.120684   -3.122969    1.383713
    183          1           0       -6.898877   -4.890106    1.260657
    184          1           0       -6.013403   -3.960471    2.506513
    185          1           0        7.121308    3.122352    1.383165
    186          1           0        6.014255    3.959802    2.506232
    187          1           0        6.899661    4.889524    1.260395
    188          1           0       -0.179618    5.486947    3.248637
    189          1           0       -1.024709    6.899650    2.553991
    190          1           0        0.127844    5.953649    1.557623
    191          1           0       -4.259039    7.221323    3.663452
    192          1           0       -5.985996    6.799679    3.503401
    193          1           0       -5.050075    6.219736    4.913261
 ---------------------------------------------------------------------

 SCF Done:  E(RB3LYP) =  -4864.68113613     A.U. after   15 cycles

 The electronic state is 1-A.
 Alpha  occ. eigenvalues --  -19.16219 -19.16218 -19.16218 -19.16218 -19.15823
 Alpha  occ. eigenvalues --  -19.15823 -19.15822 -19.15822 -19.15474 -19.15474
 Alpha  occ. eigenvalues --  -19.15474 -19.15474 -19.15282 -19.15281 -19.15281
 Alpha  occ. eigenvalues --  -19.15281 -14.32906 -14.32906 -14.32905 -14.32905
 Alpha  occ. eigenvalues --  -10.23521 -10.23521 -10.23521 -10.23521 -10.23440
 Alpha  occ. eigenvalues --  -10.23440 -10.23439 -10.23439 -10.23320 -10.23319
 Alpha  occ. eigenvalues --  -10.23319 -10.23319 -10.23319 -10.23319 -10.23318
 Alpha  occ. eigenvalues --  -10.23318 -10.23264 -10.23263 -10.23263 -10.23263
 Alpha  occ. eigenvalues --  -10.23011 -10.23010 -10.23009 -10.23009 -10.22470
 Alpha  occ. eigenvalues --  -10.22470 -10.22469 -10.22469 -10.21745 -10.21744
 Alpha  occ. eigenvalues --  -10.21743 -10.21743 -10.20240 -10.20239 -10.20239
 Alpha  occ. eigenvalues --  -10.20239 -10.20220 -10.20220 -10.20219 -10.20219
 Alpha  occ. eigenvalues --  -10.19770 -10.19769 -10.19769 -10.19769 -10.19080
 Alpha  occ. eigenvalues --  -10.18116 -10.18116 -10.18115 -10.18115 -10.17701
 Alpha  occ. eigenvalues --  -10.17700 -10.17700 -10.17699 -10.17112 -10.17112
 Alpha  occ. eigenvalues --  -10.17112 -10.17111 -10.17072 -10.17071 -10.17071
 Alpha  occ. eigenvalues --  -10.17071 -10.16845 -10.16844 -10.16844 -10.16843
 Alpha  occ. eigenvalues --  -10.16707 -10.16706 -10.16706 -10.16706 -10.16659
 Alpha  occ. eigenvalues --  -10.16655 -10.16655 -10.16655 -10.16167 -10.16167
 Alpha  occ. eigenvalues --  -10.16166 -10.16166 -10.15911 -10.15910 -10.15883
 Alpha  occ. eigenvalues --  -10.15883 -10.15791 -10.15791 -10.15791 -10.15790
 Alpha  occ. eigenvalues --  -10.15669 -10.15669 -10.15669 -10.15669  -1.06026
 Alpha  occ. eigenvalues --   -1.06025  -1.06019  -1.06018  -1.05713  -1.05713
 Alpha  occ. eigenvalues --   -1.05712  -1.05711  -1.05398  -1.05397  -1.05393
 Alpha  occ. eigenvalues --   -1.05392  -1.05107  -1.05107  -1.05019  -1.05019
 Alpha  occ. eigenvalues --   -0.93272  -0.93255  -0.93255  -0.93249  -0.87149
 Alpha  occ. eigenvalues --   -0.84556  -0.83915  -0.83903  -0.83897  -0.83893
 Alpha  occ. eigenvalues --   -0.83152  -0.83123  -0.82792  -0.82577  -0.80931
 Alpha  occ. eigenvalues --   -0.80878  -0.77957  -0.76092  -0.75387  -0.75344
 Alpha  occ. eigenvalues --   -0.75337  -0.75309  -0.74872  -0.74578  -0.74526
 Alpha  occ. eigenvalues --   -0.74484  -0.74406  -0.74280  -0.74202  -0.74054
 Alpha  occ. eigenvalues --   -0.74053  -0.73295  -0.73204  -0.72491  -0.71907
 Alpha  occ. eigenvalues --   -0.71733  -0.71571  -0.71568  -0.69590  -0.69587
 Alpha  occ. eigenvalues --   -0.69444  -0.69426  -0.69147  -0.69142  -0.69140
 Alpha  occ. eigenvalues --   -0.69109  -0.68873  -0.68811  -0.67949  -0.67886
 Alpha  occ. eigenvalues --   -0.67825  -0.67777  -0.66804  -0.66713  -0.65756
 Alpha  occ. eigenvalues --   -0.65719  -0.65657  -0.62066  -0.61554  -0.61042
 Alpha  occ. eigenvalues --   -0.61035  -0.60777  -0.60730  -0.59807  -0.58796
 Alpha  occ. eigenvalues --   -0.58753  -0.57756  -0.57729  -0.57686  -0.57587
 Alpha  occ. eigenvalues --   -0.57558  -0.57330  -0.57320  -0.57279  -0.57274
 Alpha  occ. eigenvalues --   -0.56324  -0.56238  -0.56183  -0.54803  -0.54797
 Alpha  occ. eigenvalues --   -0.54401  -0.53542  -0.53392  -0.53363  -0.53301
 Alpha  occ. eigenvalues --   -0.52348  -0.52339  -0.52289  -0.51960  -0.50431
 Alpha  occ. eigenvalues --   -0.50379  -0.50328  -0.50116  -0.50089  -0.50069
 Alpha  occ. eigenvalues --   -0.50065  -0.49546  -0.49302  -0.48986  -0.48728
 Alpha  occ. eigenvalues --   -0.48523  -0.48417  -0.47885  -0.47880  -0.47824
 Alpha  occ. eigenvalues --   -0.47739  -0.47680  -0.47625  -0.47617  -0.47449
 Alpha  occ. eigenvalues --   -0.47439  -0.47399  -0.47339  -0.46560  -0.46394
 Alpha  occ. eigenvalues --   -0.46247  -0.46211  -0.46132  -0.45919  -0.45903
 Alpha  occ. eigenvalues --   -0.45821  -0.45815  -0.45711  -0.45555  -0.45490
 Alpha  occ. eigenvalues --   -0.45460  -0.45455  -0.45401  -0.45130  -0.45032
 Alpha  occ. eigenvalues --   -0.44969  -0.44653  -0.44592  -0.44368  -0.44318
 Alpha  occ. eigenvalues --   -0.44016  -0.43596  -0.43538  -0.43476  -0.43468
 Alpha  occ. eigenvalues --   -0.43385  -0.43361  -0.43250  -0.43178  -0.42957
 Alpha  occ. eigenvalues --   -0.42930  -0.42585  -0.42501  -0.42391  -0.41429
 Alpha  occ. eigenvalues --   -0.41355  -0.41149  -0.40796  -0.40755  -0.40727
 Alpha  occ. eigenvalues --   -0.40088  -0.39926  -0.39813  -0.39771  -0.39651
 Alpha  occ. eigenvalues --   -0.39612  -0.39258  -0.39150  -0.39065  -0.39013
 Alpha  occ. eigenvalues --   -0.38794  -0.38735  -0.38712  -0.38594  -0.38120
 Alpha  occ. eigenvalues --   -0.38073  -0.38019  -0.37799  -0.37781  -0.37598
 Alpha  occ. eigenvalues --   -0.37484  -0.37412  -0.37371  -0.37237  -0.37192
 Alpha  occ. eigenvalues --   -0.37137  -0.37074  -0.36861  -0.36678  -0.36572
 Alpha  occ. eigenvalues --   -0.36458  -0.36432  -0.36257  -0.36063  -0.35990
 Alpha  occ. eigenvalues --   -0.35915  -0.35876  -0.34388  -0.34230  -0.34212
 Alpha  occ. eigenvalues --   -0.34195  -0.33855  -0.33548  -0.33473  -0.33424
 Alpha  occ. eigenvalues --   -0.33374  -0.33208  -0.33147  -0.32968  -0.32857
 Alpha  occ. eigenvalues --   -0.32849  -0.32593  -0.32528  -0.32477  -0.32421
 Alpha  occ. eigenvalues --   -0.32103  -0.32041  -0.32018  -0.31981  -0.31716
 Alpha  occ. eigenvalues --   -0.31673  -0.31510  -0.31438  -0.31267  -0.31176
 Alpha  occ. eigenvalues --   -0.31002  -0.30872  -0.30730  -0.30470  -0.30467
 Alpha  occ. eigenvalues --   -0.29692  -0.29665  -0.29563  -0.29082  -0.29082
 Alpha  occ. eigenvalues --   -0.29038  -0.29018  -0.28956  -0.28945  -0.27918
 Alpha  occ. eigenvalues --   -0.27560  -0.26451  -0.26244  -0.23797  -0.23730
 Alpha  occ. eigenvalues --   -0.23711  -0.22230  -0.22197  -0.21977  -0.21613
 Alpha  occ. eigenvalues --   -0.21538  -0.21282  -0.21221  -0.21143  -0.21084
 Alpha  occ. eigenvalues --   -0.20746  -0.20635  -0.20593  -0.20478  -0.20470
 Alpha  occ. eigenvalues --   -0.20391  -0.20252  -0.19700  -0.17342  -0.17234
 Alpha  occ. eigenvalues --   -0.15331  -0.15138
 Alpha virt. eigenvalues --   -0.00966  -0.00869  -0.00282  -0.00278  -0.00256
 Alpha virt. eigenvalues --   -0.00089   0.00845   0.00894   0.01611   0.01928
 Alpha virt. eigenvalues --    0.02206   0.02340   0.02567   0.02865   0.03115

 Mulliken atomic charges:
              1
     1  C   -0.333615
     2  C    0.099169
     3  C    0.048971
     4  C    0.048988
     5  C    0.099177
     6  C    0.099181
     7  C    0.048978
     8  C    0.048968
     9  C    0.099172
    10  C    0.030290
    11  C    0.133434
    12  C    0.079072
    13  C   -0.019752
    14  C   -0.019748
    15  C    0.079061
    16  C    0.133456
    17  C    0.030271
    18  C    0.030226
    19  C    0.133542
    20  C    0.079004
    21  C   -0.019749
    22  C   -0.019755
    23  C    0.079052
    24  C    0.133467
    25  C    0.030253
    26  N   -0.282188
    27  N   -0.282180
    28  N   -0.282153
    29  N   -0.282184
    30  C    0.059365
    31  C    0.056928
    32  C    0.056937
    33  C    0.059280
    34  C    0.056980
    35  C    0.059384
    36  C    0.059350
    37  C    0.056997
    38  C    0.123259
    39  C   -0.019649
    40  C    0.046326
    41  C   -0.008914
    42  C    0.151016
    43  C    0.128537
    44  C   -0.009938
    45  C    0.046427
    46  C   -0.029850
    47  C    0.156821
    48  C    0.123254
    49  C   -0.019643
    50  C    0.046323
    51  C   -0.008913
    52  C    0.151002
    53  C    0.128522
    54  C   -0.009920
    55  C    0.046423
    56  C   -0.029870
    57  C    0.156809
    58  C    0.156863
    59  C   -0.029882
    60  C    0.046431
    61  C   -0.009919
    62  C    0.128510
    63  C    0.151047
    64  C   -0.008930
    65  C    0.046333
    66  C   -0.019651
    67  C    0.123282
    68  C    0.156843
    69  C   -0.029858
    70  C    0.046432
    71  C   -0.009939
    72  C    0.128542
    73  C    0.151008
    74  C   -0.008921
    75  C    0.046328
    76  C   -0.019644
    77  C    0.123261
    78  H   -0.053221
    79  H   -0.053216
    80  H   -0.050738
    81  H   -0.065483
    82  H   -0.065483
    83  H   -0.050753
    84  H   -0.065480
    85  H   -0.050749
    86  H   -0.065482
    87  H   -0.050756
    88  H   -0.053217
    89  H   -0.053219
    90  H   -0.046384
    91  O   -0.278672
    92  O   -0.283279
    93  H   -0.044629
    94  H   -0.045636
    95  O   -0.280656
    96  H   -0.040329
    97  O   -0.271076
    98  O   -0.283276
    99  H   -0.044630
   100  H   -0.040328
   101  O   -0.271078
   102  H   -0.046376
   103  O   -0.278650
   104  H   -0.045634
   105  O   -0.280650
   106  H   -0.044625
   107  O   -0.283296
   108  H   -0.045418
   109  H   -0.040337
   110  O   -0.271067
   111  O   -0.278666
   112  H   -0.046382
   113  H   -0.045161
   114  H   -0.045638
   115  O   -0.280651
   116  H   -0.044626
   117  O   -0.283295
   118  H   -0.045420
   119  H   -0.040339
   120  O   -0.271071
   121  O   -0.278679
   122  H   -0.046387
   123  H   -0.045163
   124  H   -0.045638
   125  O   -0.280651
   126  H   -0.045159
   127  H   -0.045425
   128  H   -0.045153
   129  H   -0.045425
   130  C    0.137034
   131  C    0.123405
   132  C    0.129226
   133  C    0.095630
   134  C    0.137034
   135  C    0.123415
   136  C    0.129227
   137  C    0.095650
   138  H    0.022730
   139  H    0.030617
   140  H    0.021696
   141  H    0.034631
   142  H    0.012837
   143  H    0.039816
   144  H    0.028196
   145  H    0.033338
   146  H    0.025049
   147  H    0.072579
   148  H    0.017021
   149  H    0.020953
   150  H    0.030618
   151  H    0.021695
   152  H    0.022730
   153  H    0.034634
   154  H    0.012840
   155  H    0.039793
   156  H    0.033339
   157  H    0.025047
   158  H    0.028193
   159  H    0.072581
   160  H    0.020948
   161  H    0.017025
   162  C    0.095642
   163  C    0.123423
   164  C    0.129228
   165  C    0.095643
   166  C    0.123411
   167  C    0.129230
   168  C    0.137023
   169  C    0.137026
   170  H    0.017014
   171  H    0.020949
   172  H    0.072583
   173  H    0.072594
   174  H    0.017014
   175  H    0.020950
   176  H    0.030616
   177  H    0.021701
   178  H    0.022735
   179  H    0.039780
   180  H    0.034628
   181  H    0.012838
   182  H    0.033332
   183  H    0.028190
   184  H    0.025051
   185  H    0.033333
   186  H    0.025051
   187  H    0.028189
   188  H    0.034628
   189  H    0.012841
   190  H    0.039758
   191  H    0.030615
   192  H    0.022731
   193  H    0.021698
 Sum of Mulliken atomic charges =   0.00000

 Dipole moment (field-independent basis, Debye):
    X=              0.0012    Y=             -0.0024    Z=              0.0030  Tot=              0.0040
 Quadrupole moment (field-independent basis, Debye-Ang):
   XX=           -554.3275   YY=           -524.7630   ZZ=           -590.0384
   XY=             -0.0339   XZ=              0.0011   YZ=             -0.0029

 Normal termination of Gaussian 09 at Mon Feb  2 23:00:57 2015.
