 Gaussian 09, Revision A.02,
 Gaussian 09:  EM64L-G09RevA.02 11-Jun-2009

 -------------------
 #p sp B3LYP/cc-pVDZ
 -------------------

 ------------------------------------------
 Auto Spiro; and yes I said yes I will Yes.
 ------------------------------------------
 Symbolic Z-matrix:
 Charge =  0 Multiplicity = 1

                         Standard orientation:
 ---------------------------------------------------------------------
 Center     Atomic      Atomic             Coordinates (Angstroms)
 Number     Number       Type             X           Y           Z
 ---------------------------------------------------------------------
      1          6           0        0.175792   -0.131311    0.013942
      2          6           0       -0.399155   -1.189373   -0.939345
      3          6           0       -0.152575   -0.831818   -2.277952
      4          6           0        0.550474    0.453299   -2.301297
      5          6           0        0.737122    0.892035   -0.975397
      6          6           0       -0.875002    0.404639    0.990840
      7          6           0       -0.511251    0.108103    2.319409
      8          6           0        0.784866   -0.573948    2.311164
      9          6           0        1.226888   -0.692915    0.979959
     10          6           0       -2.065738    1.048314    0.694845
     11          6           0       -2.915660    1.439203    1.746450
     12          6           0       -2.542766    1.162234    3.075189
     13          6           0       -1.356627    0.490414    3.363957
     14          6           0        1.008630    1.246127   -3.356502
     15          6           0        1.636404    2.458827   -3.080995
     16          6           0        1.839592    2.887990   -1.755636
     17          6           0        1.385044    2.084144   -0.693332
     18          6           0       -1.119882   -2.326876   -0.611232
     19          6           0       -1.607727   -3.156802   -1.640349
     20          6           0       -1.309092   -2.829449   -2.980328
     21          6           0       -0.601932   -1.672411   -3.299808
     22          6           0        1.593040   -1.058114    3.342285
     23          6           0        2.827670   -1.625759    3.039386
     24          6           0        3.298891   -1.688548    1.711153
     25          6           0        2.469971   -1.222032    0.670768
     26          7           0       -4.144836    2.100248    1.473347
     27          7           0        2.500651    4.119807   -1.498637
     28          7           0       -2.380896   -4.301834   -1.333645
     29          7           0        4.595814   -2.195083    1.447928
     30          6           0        5.637537   -1.996591    2.405529
     31          6           0       -2.182598   -4.974696   -0.091177
     32          6           0        4.935919   -2.791661    0.201383
     33          6           0       -3.437693   -4.746147   -2.175633
     34          6           0       -4.214397    3.091270    0.457740
     35          6           0       -5.312866    1.737554    2.198551
     36          6           0        3.638825    4.486481   -2.270935
     37          6           0        2.065927    4.962159   -0.441437
     38          6           0        3.777528    5.803528   -2.746710
     39          6           0        4.894065    6.144962   -3.499424
     40          6           0        5.881002    5.204530   -3.813338
     41          6           0        5.734616    3.893991   -3.344325
     42          6           0        4.623692    3.541091   -2.567504
     43          6           0       -5.322281    3.150200   -0.392883
     44          6           0       -5.406129    4.133821   -1.385696
     45          6           0       -4.369294    5.057970   -1.555248
     46          6           0       -3.258512    4.979990   -0.708744
     47          6           0       -3.170289    4.021763    0.294059
     48          6           0       -6.185591    2.724531    2.664802
     49          6           0       -7.344237    2.374233    3.368523
     50          6           0       -7.630168    1.030002    3.634780
     51          6           0       -6.742674    0.051914    3.174092
     52          6           0       -5.599872    0.383984    2.456864
     53          6           0        3.000753    5.624819    0.359674
     54          6           0        2.580462    6.474390    1.390408
     55          6           0        1.217085    6.653264    1.648607
     56          6           0        0.290762    5.973454    0.850504
     57          6           0        0.691899    5.143266   -0.188979
     58          6           0       -0.986822   -5.644473    0.171486
     59          6           0       -0.775115   -6.303404    1.383742
     60          6           0       -1.784522   -6.305161    2.343205
     61          6           0       -2.991895   -5.643100    2.104354
     62          6           0       -3.195836   -4.964277    0.897865
     63          6           0       -4.261938   -3.816913   -2.835578
     64          6           0       -5.299718   -4.264628   -3.654087
     65          6           0       -5.542871   -5.638853   -3.806090
     66          6           0       -4.734071   -6.546543   -3.134183
     67          6           0       -3.677962   -6.116561   -2.326922
     68          6           0        4.057868   -3.702058   -0.415462
     69          6           0        4.406919   -4.285122   -1.636916
     70          6           0        5.640780   -3.993763   -2.237408
     71          6           0        6.504170   -3.102447   -1.612982
     72          6           0        6.161332   -2.489251   -0.406927
     73          6           0        5.875395   -0.734089    2.958403
     74          6           0        6.902661   -0.577501    3.892322
     75          6           0        7.703498   -1.650401    4.266223
     76          6           0        7.470090   -2.914168    3.702585
     77          6           0        6.433475   -3.091235    2.782922
     78          1           0        2.812475   -1.259209   -0.357661
     79          1           0       -1.332420   -2.566010    0.425461
     80          1           0       -1.655019   -3.483734   -3.773262
     81          1           0       -0.403356   -1.437711   -4.342704
     82          1           0        0.867916    0.936389   -4.388969
     83          1           0        1.981165    3.086395   -3.896254
     84          1           0        1.270213   -1.000671    4.378860
     85          1           0        3.452607   -2.006734    3.839525
     86          1           0       -1.092135    0.286441    4.398500
     87          1           0       -3.196153    1.478264    3.881952
     88          1           0        1.544649    2.401276    0.332219
     89          1           0       -2.348825    1.249678   -0.333434
     90          1           0        5.887000   -4.465680   -3.182822
     91          1           0       -6.358440   -5.959856   -4.445685
     92          1           0        6.735534    5.498007   -4.411288
     93          1           0       -4.412392    5.823408   -2.320773
     94          8           0        6.627095    2.884698   -3.573773
     95          1           0        4.544352    2.522135   -2.205499
     96          1           0       -6.135925    2.440327   -0.297587
     97          8           0       -6.539517    4.091826   -2.149577
     98          1           0        4.998233    7.162392   -3.867408
     99          1           0        3.012718    6.539244   -2.523329
    100          1           0       -2.452050    5.698291   -0.832015
    101          1           0       -2.306057    3.984134    0.948015
    102          1           0        6.833484   -1.778296    0.060012
    103          1           0        7.455678   -2.862531   -2.080161
    104          8           0        3.620076   -5.170547   -2.317117
    105          1           0        3.117296   -3.935077    0.067414
    106          8           0       -6.147892   -3.436835   -4.335565
    107          1           0       -4.084823   -2.760341   -2.684239
    108          1           0       -4.915529   -7.611974   -3.250261
    109          1           0       -3.042670   -6.835308   -1.820738
    110          8           0       -4.320324   -4.263800    0.589950
    111          1           0        0.163032   -6.818441    1.568104
    112          1           0       -0.223196   -5.641875   -0.599912
    113          1           0        5.263844    0.109919    2.658311
    114          1           0        7.089284    0.403456    4.321117
    115          8           0        8.299329   -3.913265    4.126925
    116          1           0        6.226817   -4.059270    2.343937
    117          8           0        3.587759    7.069935    2.097652
    118          1           0        4.064598    5.494416    0.197678
    119          1           0       -0.770127    6.112473    1.042797
    120          1           0       -0.042411    4.634380   -0.803554
    121          1           0       -4.930316   -0.386580    2.090626
    122          1           0       -6.963777   -0.994294    3.370323
    123          8           0       -8.121547    3.425397    3.767335
    124          1           0       -5.983317    3.774500    2.485830
    125          1           0       -1.640463   -6.819785    3.289272
    126          1           0       -8.518593    0.739174    4.182429
    127          1           0        0.871636    7.300343    2.445827
    128          1           0        8.511200   -1.538837    4.982228
    129          6           0       -5.950807   -2.036052   -4.228729
    130          1           0       -4.955615   -1.738758   -4.584870
    131          1           0       -6.079938   -1.685857   -3.196062
    132          1           0       -6.713015   -1.577555   -4.861782
    133          1           0       -3.761469   -5.644795    2.867839
    134          6           0       -5.388865   -4.252389    1.522533
    135          1           0       -5.766792   -5.264957    1.714899
    136          1           0       -6.176938   -3.654131    1.062214
    137          1           0       -5.089440   -3.791458    2.473420
    138          6           0        2.316899   -5.431269   -1.823144
    139          6           0        8.126374   -5.209864    3.577786
    140          1           0        8.895107   -5.833982    4.037436
    141          1           0        8.262209   -5.209248    2.488292
    142          1           0        7.136404   -5.621499    3.815744
    143          1           0        1.856548   -6.113848   -2.540355
    144          1           0        1.718791   -4.513122   -1.758885
    145          1           0        2.347508   -5.913009   -0.835949
    146          6           0        7.796179    3.180869   -4.318591
    147          1           0        8.363127    2.249275   -4.368633
    148          1           0        8.405972    3.950259   -3.826203
    149          1           0        7.555039    3.512191   -5.337627
    150          6           0        3.236137    7.914798    3.180097
    151          1           0        4.178749    8.267097    3.603584
    152          1           0        2.672869    7.372367    3.951249
    153          1           0        2.645357    8.778057    2.845251
    154          6           0       -6.678627    5.042720   -3.191677
    155          6           0       -9.298418    3.146212    4.506628
    156          1           0       -9.753607    4.114891    4.721771
    157          1           0       -9.071908    2.634833    5.451908
    158          1           0      -10.004741    2.535403    3.928485
    159          1           0       -7.636076    4.825801   -3.669407
    160          1           0       -5.874330    4.951231   -3.933927
    161          1           0       -6.693064    6.069984   -2.803535
 ---------------------------------------------------------------------

 SCF Done:  E(RB3LYP) =  -3948.51930443     A.U. after   15 cycles

 The electronic state is 1-A.
 Alpha  occ. eigenvalues --  -19.17483 -19.16907 -19.16828 -19.16718 -19.16558
 Alpha  occ. eigenvalues --  -19.16528 -19.16428 -19.16329 -14.35554 -14.35498
 Alpha  occ. eigenvalues --  -14.35328 -14.35301 -10.25084 -10.24570 -10.24469
 Alpha  occ. eigenvalues --  -10.24440 -10.24329 -10.24230 -10.24188 -10.24149
 Alpha  occ. eigenvalues --  -10.24130 -10.24007 -10.23978 -10.23928 -10.23847
 Alpha  occ. eigenvalues --  -10.23833 -10.23517 -10.23509 -10.22733 -10.22610
 Alpha  occ. eigenvalues --  -10.22564 -10.22564 -10.22546 -10.22535 -10.22437
 Alpha  occ. eigenvalues --  -10.22395 -10.22356 -10.22335 -10.22316 -10.22198
 Alpha  occ. eigenvalues --  -10.20760 -10.19379 -10.19227 -10.19132 -10.19122
 Alpha  occ. eigenvalues --  -10.18825 -10.18822 -10.18791 -10.18782 -10.18778
 Alpha  occ. eigenvalues --  -10.18723 -10.18705 -10.18664 -10.18644 -10.18512
 Alpha  occ. eigenvalues --  -10.18508 -10.18469 -10.18422 -10.18390 -10.18357
 Alpha  occ. eigenvalues --  -10.18353 -10.18299 -10.18264 -10.18233 -10.18233
 Alpha  occ. eigenvalues --  -10.18140 -10.18126 -10.18108 -10.18077 -10.18048
 Alpha  occ. eigenvalues --  -10.17992 -10.17964 -10.17959 -10.17953 -10.17927
 Alpha  occ. eigenvalues --  -10.17915 -10.17913 -10.17899 -10.17884 -10.17861
 Alpha  occ. eigenvalues --  -10.17793 -10.17789 -10.17644 -10.17619 -10.17567
 Alpha  occ. eigenvalues --  -10.17566 -10.17535 -10.17454 -10.17437 -10.17410
 Alpha  occ. eigenvalues --  -10.17364 -10.17259 -10.17203  -1.07335  -1.06591
 Alpha  occ. eigenvalues --   -1.06487  -1.06386  -1.06250  -1.06202  -1.06114
 Alpha  occ. eigenvalues --   -1.05961  -0.96218  -0.96160  -0.96007  -0.95960
 Alpha  occ. eigenvalues --   -0.89651  -0.86735  -0.85516  -0.85247  -0.85095
 Alpha  occ. eigenvalues --   -0.84976  -0.84765  -0.84621  -0.83963  -0.83713
 Alpha  occ. eigenvalues --   -0.82716  -0.82657  -0.80144  -0.78066  -0.76774
 Alpha  occ. eigenvalues --   -0.76198  -0.76111  -0.75920  -0.75717  -0.75648
 Alpha  occ. eigenvalues --   -0.75580  -0.75447  -0.75172  -0.75010  -0.74821
 Alpha  occ. eigenvalues --   -0.74728  -0.74618  -0.74207  -0.74006  -0.73880
 Alpha  occ. eigenvalues --   -0.73759  -0.73381  -0.72133  -0.72062  -0.70125
 Alpha  occ. eigenvalues --   -0.69975  -0.69620  -0.69555  -0.69450  -0.69352
 Alpha  occ. eigenvalues --   -0.69259  -0.69144  -0.68159  -0.68136  -0.68032
 Alpha  occ. eigenvalues --   -0.64262  -0.63705  -0.62754  -0.62556  -0.62249
 Alpha  occ. eigenvalues --   -0.62035  -0.61392  -0.60770  -0.60599  -0.60121
 Alpha  occ. eigenvalues --   -0.59946  -0.59524  -0.59457  -0.59230  -0.59074
 Alpha  occ. eigenvalues --   -0.58739  -0.58675  -0.58158  -0.57988  -0.57760
 Alpha  occ. eigenvalues --   -0.56758  -0.56302  -0.56197  -0.55564  -0.54209
 Alpha  occ. eigenvalues --   -0.54153  -0.53917  -0.53762  -0.53343  -0.53034
 Alpha  occ. eigenvalues --   -0.52865  -0.51892  -0.51234  -0.50507  -0.50011
 Alpha  occ. eigenvalues --   -0.49812  -0.49260  -0.49108  -0.48980  -0.48863
 Alpha  occ. eigenvalues --   -0.48779  -0.48687  -0.48484  -0.48332  -0.48276
 Alpha  occ. eigenvalues --   -0.48172  -0.48009  -0.47982  -0.47895  -0.47708
 Alpha  occ. eigenvalues --   -0.47691  -0.47610  -0.47154  -0.47092  -0.46786
 Alpha  occ. eigenvalues --   -0.46760  -0.46634  -0.46603  -0.46505  -0.46443
 Alpha  occ. eigenvalues --   -0.46433  -0.46341  -0.46232  -0.46144  -0.46079
 Alpha  occ. eigenvalues --   -0.45629  -0.45334  -0.45196  -0.44209  -0.43888
 Alpha  occ. eigenvalues --   -0.43666  -0.43544  -0.43404  -0.43203  -0.43113
 Alpha  occ. eigenvalues --   -0.43025  -0.42699  -0.42628  -0.42551  -0.42526
 Alpha  occ. eigenvalues --   -0.42460  -0.42206  -0.42047  -0.41798  -0.41729
 Alpha  occ. eigenvalues --   -0.41663  -0.41479  -0.41257  -0.41105  -0.40939
 Alpha  occ. eigenvalues --   -0.40801  -0.40593  -0.39903  -0.39429  -0.39366
 Alpha  occ. eigenvalues --   -0.38329  -0.38121  -0.38100  -0.37995  -0.37766
 Alpha  occ. eigenvalues --   -0.37723  -0.37716  -0.37689  -0.37629  -0.37535
 Alpha  occ. eigenvalues --   -0.37330  -0.37283  -0.37042  -0.36992  -0.36801
 Alpha  occ. eigenvalues --   -0.36796  -0.36764  -0.36687  -0.36604  -0.36483
 Alpha  occ. eigenvalues --   -0.36411  -0.36290  -0.36193  -0.36109  -0.35885
 Alpha  occ. eigenvalues --   -0.35805  -0.35559  -0.35275  -0.35155  -0.34993
 Alpha  occ. eigenvalues --   -0.34155  -0.33726  -0.33477  -0.33306  -0.33184
 Alpha  occ. eigenvalues --   -0.32963  -0.32917  -0.32876  -0.32825  -0.32672
 Alpha  occ. eigenvalues --   -0.32546  -0.32519  -0.32497  -0.32387  -0.32313
 Alpha  occ. eigenvalues --   -0.32011  -0.31968  -0.31921  -0.31815  -0.31670
 Alpha  occ. eigenvalues --   -0.30550  -0.30220  -0.29125  -0.28811  -0.26903
 Alpha  occ. eigenvalues --   -0.26804  -0.26242  -0.25916  -0.25760  -0.25451
 Alpha  occ. eigenvalues --   -0.25358  -0.24508  -0.24249  -0.24129  -0.23869
 Alpha  occ. eigenvalues --   -0.22962  -0.22756  -0.22393  -0.22182  -0.22113
 Alpha  occ. eigenvalues --   -0.21924  -0.21596  -0.21514  -0.21406  -0.19015
 Alpha  occ. eigenvalues --   -0.18968  -0.16990  -0.16826
 Alpha virt. eigenvalues --   -0.03308  -0.03103  -0.02006  -0.01921  -0.01598
 Alpha virt. eigenvalues --   -0.01395  -0.01202  -0.00984  -0.00754  -0.00289
 Alpha virt. eigenvalues --    0.00305   0.00414   0.00665   0.00819   0.01157

 Mulliken atomic charges:
              1
     1  C   -0.296133
     2  C    0.094203
     3  C    0.040471
     4  C    0.042994
     5  C    0.090472
     6  C    0.093542
     7  C    0.044190
     8  C    0.042517
     9  C    0.096356
    10  C    0.022145
    11  C    0.072437
    12  C    0.064785
    13  C   -0.012390
    14  C   -0.010764
    15  C    0.067161
    16  C    0.078105
    17  C    0.018608
    18  C    0.018219
    19  C    0.106629
    20  C    0.047647
    21  C   -0.012208
    22  C   -0.012366
    23  C    0.053327
    24  C    0.104379
    25  C    0.001321
    26  N   -0.279257
    27  N   -0.279397
    28  N   -0.281338
    29  N   -0.280158
    30  C    0.008161
    31  C   -0.023073
    32  C    0.055795
    33  C    0.083936
    34  C    0.069872
    35  C    0.057957
    36  C    0.053044
    37  C    0.071493
    38  C    0.036058
    39  C    0.056841
    40  C   -0.025229
    41  C    0.132205
    42  C    0.042675
    43  C    0.039990
    44  C    0.132180
    45  C   -0.022822
    46  C    0.048726
    47  C    0.018218
    48  C    0.045340
    49  C    0.133842
    50  C   -0.025141
    51  C    0.053235
    52  C    0.026968
    53  C    0.038045
    54  C    0.131330
    55  C   -0.023442
    56  C    0.047183
    57  C    0.016490
    58  C    0.101865
    59  C    0.042767
    60  C    0.049104
    61  C   -0.012350
    62  C    0.144626
    63  C   -0.010666
    64  C    0.134160
    65  C    0.029670
    66  C    0.063503
    67  C    0.015998
    68  C   -0.016756
    69  C    0.142075
    70  C    0.030828
    71  C    0.065156
    72  C    0.020784
    73  C    0.036188
    74  C    0.067144
    75  C    0.032137
    76  C    0.138944
    77  C    0.014669
    78  H   -0.030647
    79  H   -0.041487
    80  H   -0.028503
    81  H   -0.054919
    82  H   -0.055558
    83  H   -0.032133
    84  H   -0.056487
    85  H   -0.027192
    86  H   -0.055614
    87  H   -0.032729
    88  H   -0.038622
    89  H   -0.039896
    90  H   -0.037897
    91  H   -0.039847
    92  H   -0.040851
    93  H   -0.041821
    94  O   -0.280439
    95  H   -0.025375
    96  H   -0.029439
    97  O   -0.283215
    98  H   -0.034048
    99  H   -0.036049
   100  H   -0.027148
   101  H   -0.028135
   102  H   -0.032026
   103  H   -0.034401
   104  O   -0.280258
   105  H   -0.029222
   106  O   -0.285751
   107  H   -0.027875
   108  H   -0.036485
   109  H   -0.041871
   110  O   -0.271090
   111  H   -0.038146
   112  H   -0.061947
   113  H   -0.033279
   114  H   -0.030524
   115  O   -0.283107
   116  H   -0.038383
   117  O   -0.282307
   118  H   -0.026235
   119  H   -0.027722
   120  H   -0.028558
   121  H   -0.031114
   122  H   -0.038800
   123  O   -0.281547
   124  H   -0.028143
   125  H   -0.034273
   126  H   -0.041363
   127  H   -0.042787
   128  H   -0.035663
   129  C    0.131908
   130  H    0.028099
   131  H    0.029659
   132  H    0.030278
   133  H   -0.032835
   134  C    0.124881
   135  H    0.029262
   136  H    0.041453
   137  H    0.029986
   138  C    0.109257
   139  C    0.130763
   140  H    0.032307
   141  H    0.031477
   142  H    0.026679
   143  H    0.035268
   144  H    0.049734
   145  H    0.027898
   146  C    0.130960
   147  H    0.033237
   148  H    0.025420
   149  H    0.025108
   150  C    0.131556
   151  H    0.031961
   152  H    0.026223
   153  H    0.024922
   154  C    0.131265
   155  C    0.130813
   156  H    0.033176
   157  H    0.025232
   158  H    0.025915
   159  H    0.031636
   160  H    0.026064
   161  H    0.026150
 Sum of Mulliken atomic charges =   0.00000

 Dipole moment (field-independent basis, Debye):
    X=             -2.1186    Y=              1.2443    Z=              1.7999  Tot=              3.0457
 Quadrupole moment (field-independent basis, Debye-Ang):
   XX=           -483.8956   YY=           -495.1280   ZZ=           -504.0234
   XY=             -5.2859   XZ=            -22.8646   YZ=            -19.0893

 Normal termination of Gaussian 09 at Tue Feb  3 20:41:06 2015.
