 Gaussian 09, Revision A.02,
 Gaussian 09:  EM64L-G09RevA.02 11-Jun-2009

 -------------------
 #p sp B3LYP/cc-pVDZ
 -------------------

 ------------------------------------------
 Auto Spiro; and yes I said yes I will Yes.
 ------------------------------------------
 Symbolic Z-matrix:
 Charge =  0 Multiplicity = 1

                         Standard orientation:
 ---------------------------------------------------------------------
 Center     Atomic      Atomic             Coordinates (Angstroms)
 Number     Number       Type             X           Y           Z
 ---------------------------------------------------------------------
      1          6           0       -0.033100    0.060747   -0.001812
      2          6           0       -0.820358    0.962808    0.956441
      3          6           0       -0.538927    0.626776    2.295284
      4          6           0        0.427370   -0.472949    2.312332
      5          6           0        0.737170   -0.825783    0.983991
      6          6           0       -0.918918   -0.727713   -0.974280
      7          6           0       -0.573627   -0.432104   -2.307696
      8          6           0        0.532333    0.526910   -2.307051
      9          6           0        0.865748    0.834899   -0.973448
     10          6           0       -1.945755   -1.608096   -0.673696
     11          6           0       -2.651084   -2.228906   -1.723731
     12          6           0       -2.299820   -1.938042   -3.056637
     13          6           0       -1.275444   -1.041486   -3.350504
     14          6           0        1.036241   -1.161764    3.364158
     15          6           0        1.931299   -2.191856    3.084695
     16          6           0        2.247127   -2.540492    1.756728
     17          6           0        1.638003   -1.838496    0.697493
     18          6           0       -1.711954    1.974079    0.638108
     19          6           0       -2.340905    2.691719    1.675054
     20          6           0       -2.055305    2.358070    3.013783
     21          6           0       -1.168742    1.329841    3.325229
     22          6           0        1.244348    1.125571   -3.349454
     23          6           0        2.267542    2.023036   -3.054567
     24          6           0        2.607727    2.325245   -1.721472
     25          6           0        1.892244    1.716007   -0.672038
     26          7           0       -3.705003   -3.134960   -1.444040
     27          7           0        3.166629   -3.585582    1.488657
     28          7           0       -3.247234    3.738930    1.373045
     29          7           0        3.662172    3.233442   -1.444701
     30          6           0        4.858523    3.187046   -2.214758
     31          6           0       -2.979103    4.629396    0.295036
     32          6           0        3.544537    4.175040   -0.386226
     33          6           0       -4.420187    3.926445    2.155976
     34          6           0       -3.589957   -4.063873   -0.372783
     35          6           0       -4.878048   -3.134774   -2.250270
     36          6           0        4.315349   -3.760559    2.309992
     37          6           0        2.938720   -4.480068    0.405189
     38          6           0        4.698282   -5.032854    2.749736
     39          6           0        5.837375   -5.214010    3.537569
     40          6           0        6.604161   -4.108534    3.920588
     41          6           0        6.221583   -2.828378    3.493665
     42          6           0        5.101962   -2.658337    2.691881
     43          6           0       -4.668352   -4.307737    0.485357
     44          6           0       -4.573783   -5.240618    1.520556
     45          6           0       -3.376556   -5.933133    1.729010
     46          6           0       -2.286184   -5.685311    0.882139
     47          6           0       -2.393802   -4.773025   -0.158332
     48          6           0       -5.435745   -4.332286   -2.711990
     49          6           0       -6.598708   -4.337691   -3.485735
     50          6           0       -7.212304   -3.129087   -3.832014
     51          6           0       -6.653933   -1.923360   -3.382554
     52          6           0       -5.511458   -1.926943   -2.595091
     53          6           0        3.978003   -4.839286   -0.460084
     54          6           0        3.768058   -5.735734   -1.510459
     55          6           0        2.494527   -6.272825   -1.725621
     56          6           0        1.444075   -5.909656   -0.869754
     57          6           0        1.664978   -5.035162    0.185204
     58          6           0       -1.702432    5.172087    0.109602
     59          6           0       -1.433725    6.042011   -0.949801
     60          6           0       -2.456796    6.403267   -1.833680
     61          6           0       -3.741713    5.873136   -1.647554
     62          6           0       -3.995970    4.991886   -0.605989
     63          6           0       -5.217063    2.838806    2.532745
     64          6           0       -6.365743    3.017644    3.306675
     65          6           0       -6.751683    4.304528    3.697147
     66          6           0       -5.966069    5.400997    3.313722
     67          6           0       -4.813063    5.213809    2.564561
     68          6           0        2.340496    4.871780   -0.172045
     69          6           0        2.229003    5.798305    0.855166
     70          6           0        3.322660    6.075023    1.688972
     71          6           0        4.526601    5.394563    1.481573
     72          6           0        4.625628    4.446378    0.460586
     73          6           0        5.479466    1.966882   -2.504869
     74          6           0        6.646503    1.913144   -3.270310
     75          6           0        7.228113    3.095552   -3.740271
     76          6           0        6.619077    4.323960   -3.444080
     77          6           0        5.447061    4.367811   -2.702376
     78          1           0        2.152528    1.937271    0.358419
     79          1           0       -1.932013    2.217704   -0.396538
     80          1           0       -2.534179    2.918533    3.810034
     81          1           0       -0.962821    1.095580    4.366778
     82          1           0        0.808492   -0.914287    4.398044
     83          1           0        2.394153   -2.740943    3.898165
     84          1           0        0.999684    0.910690   -4.386743
     85          1           0        2.816553    2.502100   -3.858884
     86          1           0       -1.022483   -0.835740   -4.387651
     87          1           0       -2.839488   -2.426052   -3.861703
     88          1           0        1.880913   -2.093488   -0.329289
     89          1           0       -2.215068   -1.819865    0.356411
     90          8           0        3.110292    7.015651    2.659269
     91          6           0        4.179540    7.317725    3.538605
     92          8           0       -7.860942    4.597023    4.443285
     93          6           0       -8.693482    3.524466    4.847750
     94          8           0        7.729856   -4.166813    4.696438
     95          8           0       -3.168862   -6.860661    2.712999
     96          6           0       -4.236833   -7.139737    3.601022
     97          6           0        8.152090   -5.436045    5.163494
     98          1           0        6.829091   -1.979072    3.790987
     99          1           0        4.823808   -1.664049    2.356752
    100          1           0       -5.598000   -3.766916    0.338265
    101          1           0       -5.433407   -5.403652    2.160812
    102          1           0        6.102873   -6.216167    3.854839
    103          1           0        4.102019   -5.895092    2.468064
    104          1           0       -1.365313   -6.235964    1.049599
    105          1           0       -1.545398   -4.599280   -0.812894
    106          1           0        5.561138    3.915059    0.317157
    107          1           0        5.389174    5.578353    2.112122
    108          1           0        1.300814    6.336053    1.024710
    109          1           0        1.487925    4.674269   -0.814338
    110          1           0       -6.954178    2.149374    3.581209
    111          1           0       -4.933649    1.838121    2.221766
    112          1           0       -6.272006    6.394109    3.628157
    113          1           0       -4.206847    6.069605    2.284916
    114          1           0       -8.154390    2.810042    5.484925
    115          1           0       -9.112815    2.988700    3.985218
    116          1           0       -9.506497    3.974427    5.421005
    117          1           0       -5.112124   -7.538531    3.070073
    118          1           0       -4.537656   -6.247422    4.166802
    119          1           0       -3.862078   -7.895346    4.294277
    120          1           0        9.052235   -5.255028    5.754257
    121          1           0        8.394823   -6.113944    4.333666
    122          1           0        7.391038   -5.908026    5.799765
    123          1           0        5.047771    7.719239    2.998255
    124          1           0        4.492610    6.435864    4.113909
    125          1           0        3.799726    8.077902    4.224011
    126          1           0       -4.525337    6.155154   -2.344023
    127          1           0       -4.991725    4.578530   -0.479636
    128          1           0       -0.431644    6.440671   -1.061943
    129          1           0       -0.905423    4.905451    0.796831
    130          1           0        5.041948    1.045722   -2.132726
    131          1           0        7.095172    0.948089   -3.477096
    132          1           0        7.076033    5.233905   -3.820867
    133          1           0        4.977816    5.323329   -2.489647
    134          1           0        4.599726   -5.992272   -2.156969
    135          1           0        4.967010   -4.418590   -0.307173
    136          1           0        0.462512   -6.340757   -1.042546
    137          1           0        0.846489   -4.769304    0.846969
    138          1           0       -5.096254   -0.988321   -2.241595
    139          1           0       -7.143716   -0.992377   -3.651059
    140          1           0       -7.002419   -5.286424   -3.821058
    141          1           0       -4.958795   -5.273963   -2.458628
    142          8           0       -2.309366    7.253154   -2.894740
    143          6           0       -1.027366    7.810942   -3.128740
    144          8           0       -8.344892   -3.015541   -4.591262
    145          6           0       -8.943435   -4.204321   -5.076802
    146          8           0        2.173547   -7.149903   -2.725012
    147          6           0        3.195226   -7.532780   -3.628820
    148          8           0        8.372478    3.161908   -4.487088
    149          6           0        9.029158    1.948121   -4.808743
    150          1           0       -1.131575    8.442339   -4.013275
    151          1           0       -0.276865    7.033406   -3.325294
    152          1           0       -0.692414    8.426399   -2.282825
    153          1           0        9.902805    2.226683   -5.401273
    154          1           0        8.386083    1.284147   -5.402421
    155          1           0        9.359037    1.414298   -3.907102
    156          1           0        2.728360   -8.220490   -4.336659
    157          1           0        4.019481   -8.046853   -3.115541
    158          1           0        3.597315   -6.668866   -4.175298
    159          1           0       -9.819106   -3.888887   -5.647487
    160          1           0       -9.263811   -4.861565   -4.256792
    161          1           0       -8.263395   -4.760823   -5.736096
 ---------------------------------------------------------------------

 SCF Done:  E(RB3LYP) =  -3948.51552863     A.U. after   15 cycles

 The electronic state is 1-A.
 Alpha  occ. eigenvalues --  -19.16734 -19.16688 -19.16644 -19.16628 -19.16567
 Alpha  occ. eigenvalues --  -19.16547 -19.16462 -19.16336 -14.34876 -14.34838
 Alpha  occ. eigenvalues --  -14.34789 -14.34665 -10.24093 -10.24066 -10.24053
 Alpha  occ. eigenvalues --  -10.24018 -10.24006 -10.23992 -10.23987 -10.23975
 Alpha  occ. eigenvalues --  -10.23927 -10.23906 -10.23895 -10.23873 -10.23837
 Alpha  occ. eigenvalues --  -10.23790 -10.23736 -10.23600 -10.21976 -10.21940
 Alpha  occ. eigenvalues --  -10.21928 -10.21858 -10.21742 -10.21726 -10.21719
 Alpha  occ. eigenvalues --  -10.21670 -10.21646 -10.21639 -10.21514 -10.21418
 Alpha  occ. eigenvalues --  -10.20437 -10.18588 -10.18553 -10.18550 -10.18536
 Alpha  occ. eigenvalues --  -10.18521 -10.18504 -10.18483 -10.18478 -10.18472
 Alpha  occ. eigenvalues --  -10.18454 -10.18454 -10.18448 -10.18440 -10.18433
 Alpha  occ. eigenvalues --  -10.18412 -10.18404 -10.18394 -10.18390 -10.18385
 Alpha  occ. eigenvalues --  -10.18385 -10.18360 -10.18336 -10.18336 -10.18265
 Alpha  occ. eigenvalues --  -10.18262 -10.18251 -10.18223 -10.18198 -10.18193
 Alpha  occ. eigenvalues --  -10.18189 -10.18166 -10.18164 -10.18160 -10.18116
 Alpha  occ. eigenvalues --  -10.18104 -10.18099 -10.18080 -10.18036 -10.17963
 Alpha  occ. eigenvalues --  -10.17937 -10.17893 -10.17869 -10.17842 -10.17818
 Alpha  occ. eigenvalues --  -10.17792 -10.17720 -10.17714 -10.17693 -10.17642
 Alpha  occ. eigenvalues --  -10.17617 -10.17602 -10.17516  -1.06371  -1.06322
 Alpha  occ. eigenvalues --   -1.06291  -1.06268  -1.06210  -1.06186  -1.06098
 Alpha  occ. eigenvalues --   -1.05975  -0.95657  -0.95617  -0.95577  -0.95440
 Alpha  occ. eigenvalues --   -0.89268  -0.86384  -0.85173  -0.85164  -0.85096
 Alpha  occ. eigenvalues --   -0.84923  -0.84614  -0.84540  -0.83953  -0.83693
 Alpha  occ. eigenvalues --   -0.82501  -0.82412  -0.79780  -0.77706  -0.76483
 Alpha  occ. eigenvalues --   -0.76049  -0.75927  -0.75896  -0.75809  -0.75293
 Alpha  occ. eigenvalues --   -0.75180  -0.74803  -0.74789  -0.74717  -0.74696
 Alpha  occ. eigenvalues --   -0.74673  -0.74155  -0.74022  -0.73896  -0.73824
 Alpha  occ. eigenvalues --   -0.73565  -0.73472  -0.73010  -0.72940  -0.70935
 Alpha  occ. eigenvalues --   -0.70733  -0.69854  -0.69742  -0.69664  -0.69598
 Alpha  occ. eigenvalues --   -0.68263  -0.68076  -0.67591  -0.66707  -0.66624
 Alpha  occ. eigenvalues --   -0.63492  -0.62956  -0.62112  -0.61778  -0.61732
 Alpha  occ. eigenvalues --   -0.61381  -0.61279  -0.61248  -0.60812  -0.60754
 Alpha  occ. eigenvalues --   -0.60020  -0.59983  -0.59837  -0.59520  -0.59310
 Alpha  occ. eigenvalues --   -0.58649  -0.58476  -0.57847  -0.57685  -0.57585
 Alpha  occ. eigenvalues --   -0.56199  -0.55998  -0.55858  -0.55234  -0.53676
 Alpha  occ. eigenvalues --   -0.53600  -0.53486  -0.53293  -0.53165  -0.53057
 Alpha  occ. eigenvalues --   -0.52898  -0.52772  -0.52028  -0.51703  -0.51548
 Alpha  occ. eigenvalues --   -0.51115  -0.51027  -0.50697  -0.50675  -0.49690
 Alpha  occ. eigenvalues --   -0.49144  -0.48845  -0.48619  -0.48493  -0.48334
 Alpha  occ. eigenvalues --   -0.48114  -0.47365  -0.47320  -0.47237  -0.46638
 Alpha  occ. eigenvalues --   -0.46611  -0.46558  -0.46556  -0.46486  -0.46466
 Alpha  occ. eigenvalues --   -0.46446  -0.46398  -0.46341  -0.46195  -0.46026
 Alpha  occ. eigenvalues --   -0.44524  -0.44496  -0.44481  -0.44452  -0.44402
 Alpha  occ. eigenvalues --   -0.44359  -0.44266  -0.44121  -0.43470  -0.43351
 Alpha  occ. eigenvalues --   -0.43088  -0.43069  -0.42906  -0.42591  -0.42539
 Alpha  occ. eigenvalues --   -0.42442  -0.42355  -0.42209  -0.42139  -0.42075
 Alpha  occ. eigenvalues --   -0.42050  -0.41860  -0.41762  -0.41716  -0.41685
 Alpha  occ. eigenvalues --   -0.41436  -0.41332  -0.41210  -0.41193  -0.40993
 Alpha  occ. eigenvalues --   -0.40934  -0.40878  -0.40693  -0.40642  -0.40210
 Alpha  occ. eigenvalues --   -0.39881  -0.39575  -0.38738  -0.38448  -0.38427
 Alpha  occ. eigenvalues --   -0.38242  -0.37994  -0.37892  -0.37751  -0.37714
 Alpha  occ. eigenvalues --   -0.37617  -0.37594  -0.37581  -0.37536  -0.37504
 Alpha  occ. eigenvalues --   -0.37324  -0.36697  -0.36403  -0.36278  -0.36141
 Alpha  occ. eigenvalues --   -0.36066  -0.36029  -0.35779  -0.35722  -0.35639
 Alpha  occ. eigenvalues --   -0.35489  -0.35302  -0.35273  -0.35051  -0.34715
 Alpha  occ. eigenvalues --   -0.33784  -0.33469  -0.33207  -0.32949  -0.32841
 Alpha  occ. eigenvalues --   -0.32612  -0.32567  -0.32468  -0.32444  -0.32418
 Alpha  occ. eigenvalues --   -0.32396  -0.32355  -0.32319  -0.32191  -0.32117
 Alpha  occ. eigenvalues --   -0.32065  -0.32025  -0.31977  -0.31778  -0.31371
 Alpha  occ. eigenvalues --   -0.29891  -0.29583  -0.27725  -0.27343  -0.26022
 Alpha  occ. eigenvalues --   -0.25609  -0.25502  -0.25476  -0.25393  -0.25376
 Alpha  occ. eigenvalues --   -0.25158  -0.24973  -0.24699  -0.24591  -0.24536
 Alpha  occ. eigenvalues --   -0.23930  -0.23876  -0.23276  -0.22450  -0.22390
 Alpha  occ. eigenvalues --   -0.22365  -0.22078  -0.22019  -0.21240  -0.17626
 Alpha  occ. eigenvalues --   -0.17566  -0.16007  -0.15856
 Alpha virt. eigenvalues --   -0.02837  -0.02697  -0.02041  -0.01882  -0.01587
 Alpha virt. eigenvalues --   -0.01261  -0.00143  -0.00119  -0.00060   0.00113
 Alpha virt. eigenvalues --    0.00145   0.00242   0.00309   0.00375   0.00386

 Mulliken atomic charges:
              1
     1  C   -0.299083
     2  C    0.099860
     3  C    0.041780
     4  C    0.041712
     5  C    0.098818
     6  C    0.100303
     7  C    0.042037
     8  C    0.042096
     9  C    0.099552
    10  C    0.015948
    11  C    0.079773
    12  C    0.060538
    13  C   -0.010774
    14  C   -0.011618
    15  C    0.058344
    16  C    0.083191
    17  C    0.013888
    18  C    0.014942
    19  C    0.082808
    20  C    0.059225
    21  C   -0.011931
    22  C   -0.010820
    23  C    0.062474
    24  C    0.075833
    25  C    0.015516
    26  N   -0.277500
    27  N   -0.277683
    28  N   -0.277487
    29  N   -0.277349
    30  C    0.035181
    31  C    0.037276
    32  C    0.049435
    33  C    0.041607
    34  C    0.043393
    35  C    0.037151
    36  C    0.040325
    37  C    0.037736
    38  C    0.039359
    39  C   -0.003511
    40  C    0.117720
    41  C    0.049090
    42  C    0.051475
    43  C    0.041691
    44  C   -0.001952
    45  C    0.119438
    46  C    0.039913
    47  C    0.047600
    48  C    0.040644
    49  C   -0.003367
    50  C    0.117997
    51  C    0.049250
    52  C    0.053145
    53  C    0.044369
    54  C   -0.001898
    55  C    0.119843
    56  C    0.040513
    57  C    0.050479
    58  C    0.040101
    59  C   -0.011036
    60  C    0.119370
    61  C    0.050653
    62  C    0.054098
    63  C    0.041457
    64  C   -0.003061
    65  C    0.118044
    66  C    0.048784
    67  C    0.048229
    68  C    0.042098
    69  C    0.037469
    70  C    0.119431
    71  C   -0.001596
    72  C    0.037254
    73  C    0.043502
    74  C   -0.002932
    75  C    0.118322
    76  C    0.049197
    77  C    0.052382
    78  H   -0.041225
    79  H   -0.041335
    80  H   -0.033678
    81  H   -0.057235
    82  H   -0.056883
    83  H   -0.033329
    84  H   -0.056518
    85  H   -0.035777
    86  H   -0.056595
    87  H   -0.033814
    88  H   -0.041848
    89  H   -0.041574
    90  O   -0.280517
    91  C    0.131008
    92  O   -0.282605
    93  C    0.131024
    94  O   -0.282570
    95  O   -0.280514
    96  C    0.131269
    97  C    0.131061
    98  H   -0.031713
    99  H   -0.027859
   100  H   -0.032657
   101  H   -0.036857
   102  H   -0.035930
   103  H   -0.031762
   104  H   -0.026438
   105  H   -0.025193
   106  H   -0.030402
   107  H   -0.035958
   108  H   -0.026882
   109  H   -0.025016
   110  H   -0.035590
   111  H   -0.029117
   112  H   -0.031988
   113  H   -0.029798
   114  H    0.024182
   115  H    0.024729
   116  H    0.031895
   117  H    0.023573
   118  H    0.025128
   119  H    0.032270
   120  H    0.032203
   121  H    0.023961
   122  H    0.024899
   123  H    0.023936
   124  H    0.025772
   125  H    0.032654
   126  H   -0.031725
   127  H   -0.031898
   128  H   -0.030032
   129  H   -0.025773
   130  H   -0.029142
   131  H   -0.034775
   132  H   -0.032051
   133  H   -0.033025
   134  H   -0.036865
   135  H   -0.033962
   136  H   -0.025776
   137  H   -0.025554
   138  H   -0.027721
   139  H   -0.030573
   140  H   -0.035921
   141  H   -0.032361
   142  O   -0.282624
   143  C    0.129876
   144  O   -0.282083
   145  C    0.131074
   146  O   -0.280176
   147  C    0.131186
   148  O   -0.282364
   149  C    0.130727
   150  H    0.031070
   151  H    0.028562
   152  H    0.026397
   153  H    0.032415
   154  H    0.024961
   155  H    0.025028
   156  H    0.032613
   157  H    0.023734
   158  H    0.025128
   159  H    0.032448
   160  H    0.023957
   161  H    0.024781
 Sum of Mulliken atomic charges =   0.00000

 Dipole moment (field-independent basis, Debye):
    X=              1.7753    Y=             -4.3385    Z=              0.4879  Tot=              4.7130
 Quadrupole moment (field-independent basis, Debye-Ang):
   XX=           -460.8597   YY=           -493.3881   ZZ=           -494.6616
   XY=             13.9377   XZ=             -9.2942   YZ=              4.9715

 Normal termination of Gaussian 09 at Mon Feb  2 22:20:32 2015.
