 Gaussian 09, Revision A.02,
 Gaussian 09:  EM64L-G09RevA.02 11-Jun-2009

 -------------------
 #p sp B3LYP/cc-pVDZ
 -------------------

 ------------------------------------------
 Auto Spiro; and yes I said yes I will Yes.
 ------------------------------------------
 Symbolic Z-matrix:
 Charge =  0 Multiplicity = 1

                         Standard orientation:
 ---------------------------------------------------------------------
 Center     Atomic      Atomic             Coordinates (Angstroms)
 Number     Number       Type             X           Y           Z
 ---------------------------------------------------------------------
      1          6           0       -0.038574    0.039905    0.017485
      2          6           0       -0.881721    0.867467    0.993186
      3          6           0       -0.656824    0.440334    2.319610
      4          6           0        0.362486   -0.609770    2.316194
      5          6           0        0.767150   -0.843081    0.989835
      6          6           0       -0.877857   -0.800187   -0.961694
      7          6           0       -0.379038   -0.661720   -2.269524
      8          6           0        0.728580    0.295187   -2.257089
      9          6           0        0.895434    0.781675   -0.945490
     10          6           0       -1.989411   -1.586259   -0.690558
     11          6           0       -2.620094   -2.274790   -1.746255
     12          6           0       -2.079715   -2.180468   -3.045817
     13          6           0       -0.979440   -1.372299   -3.311135
     14          6           0        0.965207   -1.329589    3.349316
     15          6           0        1.973521   -2.244716    3.055900
     16          6           0        2.421473   -2.433773    1.735195
     17          6           0        1.791809   -1.726557    0.690856
     18          6           0       -1.813127    1.854752    0.709311
     19          6           0       -2.537150    2.446550    1.764255
     20          6           0       -2.292934    2.034252    3.084964
     21          6           0       -1.366393    1.031888    3.364589
     22          6           0        1.572866    0.739527   -3.279120
     23          6           0        2.572629    1.661817   -2.982575
     24          6           0        2.739695    2.148371   -1.676557
     25          6           0        1.888199    1.708139   -0.650090
     26          7           0       -3.791219   -3.040291   -1.534061
     27          7           0        3.509407   -3.304025    1.449569
     28          7           0       -3.525479    3.431784    1.482628
     29          7           0        3.808388    3.064986   -1.405503
     30          6           0        5.141604    2.591626   -1.498095
     31          6           0       -3.211326    4.504487    0.599664
     32          6           0        3.517360    4.217611   -0.620904
     33          6           0       -4.611451    3.626000    2.386329
     34          6           0       -4.173371   -3.481173   -0.235175
     35          6           0       -4.781840   -3.115927   -2.556727
     36          6           0        4.427118   -3.684920    2.471739
     37          6           0        3.507529   -4.065381    0.244515
     38          6           0        4.677617   -5.042167    2.720653
     39          6           0        5.581424   -5.446355    3.701639
     40          6           0        6.240861   -4.492443    4.476784
     41          6           0        6.000955   -3.138198    4.244666
     42          6           0        5.119111   -2.723927    3.244911
     43          6           0       -5.406548   -3.103783    0.302694
     44          6           0       -5.832483   -3.569378    1.549188
     45          6           0       -5.001520   -4.408194    2.285595
     46          6           0       -3.762943   -4.799552    1.769579
     47          6           0       -3.349398   -4.362612    0.506630
     48          6           0       -5.302956   -4.376022   -2.940604
     49          6           0       -6.292476   -4.445644   -3.927118
     50          6           0       -6.751909   -3.281851   -4.549723
     51          6           0       -6.235175   -2.040186   -4.188126
     52          6           0       -5.263361   -1.965706   -3.189183
     53          6           0        4.685615   -4.172586   -0.536690
     54          6           0        4.678156   -4.937319   -1.706835
     55          6           0        3.508470   -5.574595   -2.128865
     56          6           0        2.341405   -5.459729   -1.379157
     57          6           0        2.353721   -4.719943   -0.196281
     58          6           0       -1.976841    5.164832    0.679481
     59          6           0       -1.693705    6.263318   -0.130104
     60          6           0       -2.649141    6.727802   -1.036476
     61          6           0       -3.874252    6.069880   -1.140842
     62          6           0       -4.161176    4.959921   -0.343350
     63          6           0       -5.489583    2.555471    2.689066
     64          6           0       -6.550586    2.755960    3.575599
     65          6           0       -6.769471    4.014208    4.144822
     66          6           0       -5.923321    5.075361    3.839579
     67          6           0       -4.847120    4.871572    2.973853
     68          6           0        2.604563    5.178655   -1.118692
     69          6           0        2.308970    6.313915   -0.359996
     70          6           0        2.921419    6.510451    0.882262
     71          6           0        3.828841    5.576190    1.372422
     72          6           0        4.114999    4.434059    0.621808
     73          6           0        5.449122    1.239307   -1.269919
     74          6           0        6.757142    0.766710   -1.366465
     75          6           0        7.800424    1.640351   -1.672943
     76          6           0        7.512320    2.985113   -1.907795
     77          6           0        6.203471    3.462733   -1.842484
     78          1           0        2.030232    2.074838    0.362457
     79          1           0       -2.001765    2.165016   -0.314125
     80          1           0       -2.840941    2.503845    3.895190
     81          1           0       -1.197747    0.727134    4.394501
     82          1           0        0.661557   -1.182277    4.382793
     83          1           0        2.441527   -2.800304    3.860736
     84          1           0        1.454486    0.374748   -4.296404
     85          1           0        3.238476    2.021194   -3.761149
     86          1           0       -0.598956   -1.300915   -4.327214
     87          1           0       -2.545225   -2.735916   -3.852534
     88          1           0        2.118799   -1.865532   -0.334499
     89          1           0       -2.389754   -1.648127    0.316136
     90          1           0        6.497652   -2.367958    4.827445
     91          8           0        4.896574   -1.375766    3.103597
     92          1           0       -6.042521   -2.445898   -0.281980
     93          1           0       -6.802316   -3.271001    1.937391
     94          1           0        5.752115   -6.506235    3.869989
     95          1           0        4.146737   -5.783796    2.131586
     96          1           0       -3.132295   -5.463491    2.349342
     97          8           0       -2.185459   -4.738332   -0.087055
     98          1           0        4.819767    3.695860    0.992922
     99          1           0        4.306981    5.723996    2.336296
    100          1           0        1.623514    7.061736   -0.742668
    101          8           0        2.087496    4.921978   -2.355712
    102          1           0       -7.223634    1.939415    3.810933
    103          8           0       -5.223676    1.369154    2.070894
    104          1           0       -6.084720    6.055525    4.278731
    105          1           0       -4.172724    5.689452    2.740842
    106          1           0       -4.635758    6.398213   -1.841915
    107          8           0       -5.405793    4.392376   -0.466596
    108          1           0       -2.443808    7.593518   -1.660428
    109          1           0       -0.737254    6.766674   -0.025961
    110          1           0       -1.244936    4.814924    1.400939
    111          1           0        4.645161    0.558597   -1.011263
    112          1           0        6.955443   -0.286002   -1.182550
    113          1           0        8.824194    1.282544   -1.737646
    114          1           0        8.294680    3.695339   -2.159640
    115          8           0        5.992013    4.804248   -2.074406
    116          1           0        5.576883   -5.022802   -2.306827
    117          8           0        5.777599   -3.495413   -0.077807
    118          1           0        3.518795   -6.152234   -3.048899
    119          1           0        1.427038   -5.946629   -1.706083
    120          1           0        1.453581   -4.623947    0.401317
    121          1           0       -4.853981   -1.005511   -2.890168
    122          1           0       -6.591514   -1.132631   -4.666586
    123          1           0       -7.514583   -3.356960   -5.319994
    124          1           0       -6.697952   -5.405437   -4.226156
    125          8           0       -4.781304   -5.459128   -2.300432
    126          1           0        6.938200   -4.795991    5.252694
    127          1           0       -5.309312   -4.770961    3.262488
    128          1           0       -7.607352    4.153472    4.822431
    129          1           0        2.686521    7.402925    1.455867
    130          6           0        5.445462    5.110984   -3.359315
    131          6           0        1.123136    5.816139   -2.888906
    132          6           0       -5.436387    3.065710   -1.004882
    133          6           0       -5.989895    0.230851    2.431610
    134          6           0       -5.279180   -6.744290   -2.631201
    135          6           0       -1.364070   -5.677476    0.584738
    136          6           0        7.008035   -3.644958   -0.768380
    137          6           0        5.473006   -0.764189    1.946060
    138          1           0        6.100899    4.741342   -4.159896
    139          1           0        5.391111    6.201201   -3.411531
    140          1           0        4.441016    4.692199   -3.479584
    141          1           0        0.845372    5.405039   -3.861247
    142          1           0        1.539392    6.823391   -3.027606
    143          1           0        0.232300    5.872881   -2.252094
    144          1           0       -6.493722    2.821757   -1.133339
    145          1           0       -4.975732    2.342940   -0.326071
    146          1           0       -4.936058    3.033578   -1.982081
    147          1           0       -5.565378   -0.605929    1.875640
    148          1           0       -7.047061    0.353678    2.159072
    149          1           0       -5.916993    0.025173    3.507355
    150          1           0       -4.728263   -7.446666   -2.003223
    151          1           0       -5.102282   -6.987034   -3.687577
    152          1           0       -6.352449   -6.830829   -2.416040
    153          1           0       -0.535452   -5.885735   -0.093440
    154          1           0       -1.904425   -6.611032    0.791163
    155          1           0       -0.970642   -5.272755    1.526565
    156          1           0        7.737960   -3.063590   -0.202291
    157          1           0        6.947010   -3.254933   -1.793015
    158          1           0        7.326269   -4.694905   -0.799251
    159          1           0        6.569878   -0.804180    1.993830
    160          1           0        5.148538    0.277912    1.960478
    161          1           0        5.135311   -1.246219    1.024905
 ---------------------------------------------------------------------

 SCF Done:  E(RB3LYP) =  -3948.48304807     A.U. after   16 cycles

 The electronic state is 1-A.
 Alpha  occ. eigenvalues --  -19.17728 -19.17405 -19.17138 -19.16833 -19.16725
 Alpha  occ. eigenvalues --  -19.14684 -19.14416 -19.14301 -14.35666 -14.35307
 Alpha  occ. eigenvalues --  -14.35057 -14.34563 -10.25032 -10.24923 -10.24706
 Alpha  occ. eigenvalues --  -10.24643 -10.24536 -10.24213 -10.24159 -10.23974
 Alpha  occ. eigenvalues --  -10.23573 -10.23556 -10.23456 -10.23294 -10.22920
 Alpha  occ. eigenvalues --  -10.22549 -10.22365 -10.22235 -10.22226 -10.22183
 Alpha  occ. eigenvalues --  -10.22134 -10.22118 -10.22106 -10.22087 -10.22050
 Alpha  occ. eigenvalues --  -10.21832 -10.21827 -10.21803 -10.21510 -10.21499
 Alpha  occ. eigenvalues --  -10.20583 -10.19146 -10.19121 -10.19055 -10.19011
 Alpha  occ. eigenvalues --  -10.18986 -10.18948 -10.18927 -10.18794 -10.18771
 Alpha  occ. eigenvalues --  -10.18622 -10.18608 -10.18539 -10.18504 -10.18500
 Alpha  occ. eigenvalues --  -10.18465 -10.18437 -10.18393 -10.18386 -10.18385
 Alpha  occ. eigenvalues --  -10.18374 -10.18367 -10.18322 -10.18296 -10.18244
 Alpha  occ. eigenvalues --  -10.18240 -10.18226 -10.18204 -10.18165 -10.18153
 Alpha  occ. eigenvalues --  -10.18153 -10.18120 -10.18101 -10.18064 -10.18005
 Alpha  occ. eigenvalues --  -10.17934 -10.17923 -10.17920 -10.17914 -10.17903
 Alpha  occ. eigenvalues --  -10.17900 -10.17887 -10.17775 -10.17733 -10.17687
 Alpha  occ. eigenvalues --  -10.17638 -10.17603 -10.17587 -10.17576 -10.17546
 Alpha  occ. eigenvalues --  -10.17536 -10.17508 -10.17498  -1.07428  -1.07280
 Alpha  occ. eigenvalues --   -1.07015  -1.06552  -1.06392  -1.04419  -1.04231
 Alpha  occ. eigenvalues --   -1.04083  -0.95838  -0.95826  -0.95448  -0.95085
 Alpha  occ. eigenvalues --   -0.89225  -0.86363  -0.85549  -0.85407  -0.84938
 Alpha  occ. eigenvalues --   -0.84770  -0.84681  -0.84555  -0.83947  -0.83727
 Alpha  occ. eigenvalues --   -0.82555  -0.82507  -0.79795  -0.77731  -0.76598
 Alpha  occ. eigenvalues --   -0.76348  -0.76012  -0.75810  -0.75617  -0.75564
 Alpha  occ. eigenvalues --   -0.75491  -0.75040  -0.74699  -0.74483  -0.74426
 Alpha  occ. eigenvalues --   -0.74354  -0.74163  -0.73997  -0.73881  -0.73794
 Alpha  occ. eigenvalues --   -0.73451  -0.73194  -0.72074  -0.72015  -0.70332
 Alpha  occ. eigenvalues --   -0.70294  -0.70072  -0.69505  -0.69144  -0.68747
 Alpha  occ. eigenvalues --   -0.68356  -0.67704  -0.67625  -0.67230  -0.67110
 Alpha  occ. eigenvalues --   -0.63946  -0.63477  -0.62645  -0.62222  -0.61969
 Alpha  occ. eigenvalues --   -0.61639  -0.61231  -0.60846  -0.60645  -0.59967
 Alpha  occ. eigenvalues --   -0.59763  -0.59479  -0.59399  -0.59216  -0.58983
 Alpha  occ. eigenvalues --   -0.58777  -0.58316  -0.58022  -0.57790  -0.57644
 Alpha  occ. eigenvalues --   -0.56882  -0.56266  -0.56142  -0.55471  -0.54229
 Alpha  occ. eigenvalues --   -0.54059  -0.53379  -0.53357  -0.53074  -0.52529
 Alpha  occ. eigenvalues --   -0.52248  -0.51820  -0.51433  -0.51070  -0.50853
 Alpha  occ. eigenvalues --   -0.50649  -0.49874  -0.49737  -0.49521  -0.49377
 Alpha  occ. eigenvalues --   -0.49137  -0.49029  -0.48880  -0.48517  -0.48319
 Alpha  occ. eigenvalues --   -0.48094  -0.47636  -0.47375  -0.47196  -0.47162
 Alpha  occ. eigenvalues --   -0.47090  -0.46917  -0.46673  -0.46569  -0.46507
 Alpha  occ. eigenvalues --   -0.46404  -0.46285  -0.46051  -0.45846  -0.45434
 Alpha  occ. eigenvalues --   -0.45303  -0.45082  -0.44929  -0.44775  -0.44625
 Alpha  occ. eigenvalues --   -0.44570  -0.44514  -0.44355  -0.44196  -0.44011
 Alpha  occ. eigenvalues --   -0.43748  -0.43421  -0.43347  -0.43185  -0.43077
 Alpha  occ. eigenvalues --   -0.42771  -0.42666  -0.42580  -0.42529  -0.42405
 Alpha  occ. eigenvalues --   -0.42342  -0.42204  -0.42128  -0.42028  -0.41762
 Alpha  occ. eigenvalues --   -0.41671  -0.41660  -0.41526  -0.41319  -0.41208
 Alpha  occ. eigenvalues --   -0.41066  -0.40828  -0.39687  -0.39239  -0.39076
 Alpha  occ. eigenvalues --   -0.38594  -0.38423  -0.38213  -0.38153  -0.38082
 Alpha  occ. eigenvalues --   -0.37927  -0.37811  -0.37687  -0.37591  -0.37367
 Alpha  occ. eigenvalues --   -0.37077  -0.37072  -0.36978  -0.36905  -0.36545
 Alpha  occ. eigenvalues --   -0.36421  -0.36292  -0.36126  -0.36085  -0.35933
 Alpha  occ. eigenvalues --   -0.35896  -0.35869  -0.35639  -0.35533  -0.35470
 Alpha  occ. eigenvalues --   -0.35411  -0.35143  -0.34919  -0.34834  -0.34568
 Alpha  occ. eigenvalues --   -0.33873  -0.33684  -0.33422  -0.33266  -0.33121
 Alpha  occ. eigenvalues --   -0.33080  -0.32991  -0.32810  -0.32640  -0.32566
 Alpha  occ. eigenvalues --   -0.32518  -0.32445  -0.32276  -0.32103  -0.31678
 Alpha  occ. eigenvalues --   -0.31578  -0.31371  -0.30794  -0.30303  -0.29480
 Alpha  occ. eigenvalues --   -0.28947  -0.27355  -0.27202  -0.26869  -0.26630
 Alpha  occ. eigenvalues --   -0.26318  -0.26001  -0.25689  -0.25590  -0.25214
 Alpha  occ. eigenvalues --   -0.24772  -0.24168  -0.24122  -0.23949  -0.23674
 Alpha  occ. eigenvalues --   -0.23501  -0.23491  -0.23218  -0.22889  -0.22644
 Alpha  occ. eigenvalues --   -0.22392  -0.22142  -0.21911  -0.21509  -0.19138
 Alpha  occ. eigenvalues --   -0.18876  -0.17102  -0.16794
 Alpha virt. eigenvalues --   -0.02850  -0.02700  -0.01894  -0.01724  -0.01535
 Alpha virt. eigenvalues --   -0.01320  -0.01227  -0.00917  -0.00604  -0.00444
 Alpha virt. eigenvalues --    0.00205   0.00312   0.00535   0.00673   0.00776

 Mulliken atomic charges:
              1
     1  C   -0.308000
     2  C    0.084291
     3  C    0.046748
     4  C    0.046480
     5  C    0.101892
     6  C    0.095603
     7  C    0.045196
     8  C    0.049516
     9  C    0.085590
    10  C    0.004415
    11  C    0.133158
    12  C    0.056027
    13  C   -0.014264
    14  C   -0.017068
    15  C    0.054039
    16  C    0.108628
    17  C    0.019359
    18  C    0.024524
    19  C    0.112454
    20  C    0.052764
    21  C   -0.018282
    22  C   -0.015493
    23  C    0.102857
    24  C    0.059466
    25  C    0.038781
    26  N   -0.270467
    27  N   -0.282328
    28  N   -0.280248
    29  N   -0.285281
    30  C    0.078266
    31  C    0.027754
    32  C    0.044119
    33  C    0.042190
    34  C    0.040261
    35  C   -0.007479
    36  C    0.083779
    37  C    0.007121
    38  C    0.033693
    39  C    0.048058
    40  C    0.049369
    41  C    0.060984
    42  C    0.061010
    43  C    0.049407
    44  C    0.041056
    45  C    0.046031
    46  C   -0.013614
    47  C    0.152128
    48  C    0.133660
    49  C   -0.010152
    50  C    0.043699
    51  C    0.049847
    52  C    0.066587
    53  C    0.136260
    54  C   -0.000683
    55  C    0.044206
    56  C    0.045761
    57  C    0.064133
    58  C    0.043460
    59  C    0.054065
    60  C    0.043692
    61  C    0.059828
    62  C    0.072338
    63  C    0.144623
    64  C   -0.005360
    65  C    0.044440
    66  C    0.049209
    67  C    0.054172
    68  C    0.136372
    69  C   -0.009946
    70  C    0.040896
    71  C    0.052104
    72  C    0.060652
    73  C    0.015800
    74  C    0.045849
    75  C    0.045845
    76  C    0.063892
    77  C    0.053307
    78  H   -0.050847
    79  H   -0.052290
    80  H   -0.034264
    81  H   -0.057243
    82  H   -0.057915
    83  H   -0.028871
    84  H   -0.057342
    85  H   -0.050994
    86  H   -0.058810
    87  H   -0.030527
    88  H   -0.035031
    89  H   -0.037968
    90  H   -0.039853
    91  O   -0.300947
    92  H   -0.036732
    93  H   -0.039799
    94  H   -0.039018
    95  H   -0.034274
    96  H   -0.033698
    97  O   -0.268582
    98  H   -0.036110
    99  H   -0.037934
   100  H   -0.029975
   101  O   -0.284921
   102  H   -0.036813
   103  O   -0.282850
   104  H   -0.038932
   105  H   -0.033886
   106  H   -0.039095
   107  O   -0.298611
   108  H   -0.040639
   109  H   -0.034839
   110  H   -0.027246
   111  H   -0.024143
   112  H   -0.043334
   113  H   -0.043875
   114  H   -0.041741
   115  O   -0.300991
   116  H   -0.033492
   117  O   -0.284943
   118  H   -0.037363
   119  H   -0.034275
   120  H   -0.040833
   121  H   -0.033859
   122  H   -0.036102
   123  H   -0.036372
   124  H   -0.034838
   125  O   -0.272411
   126  H   -0.037752
   127  H   -0.037858
   128  H   -0.039650
   129  H   -0.039386
   130  C    0.127497
   131  C    0.121049
   132  C    0.118767
   133  C    0.117084
   134  C    0.131566
   135  C    0.115267
   136  C    0.125117
   137  C    0.122476
   138  H    0.005693
   139  H    0.025255
   140  H    0.037743
   141  H    0.033611
   142  H    0.022138
   143  H    0.037528
   144  H    0.024545
   145  H    0.049256
   146  H    0.009388
   147  H    0.050090
   148  H    0.021648
   149  H    0.026477
   150  H    0.034673
   151  H    0.025781
   152  H    0.027923
   153  H    0.046853
   154  H    0.022419
   155  H    0.040979
   156  H    0.041262
   157  H    0.032832
   158  H    0.031300
   159  H    0.006032
   160  H    0.034942
   161  H    0.039836
 Sum of Mulliken atomic charges =   0.00000

 Dipole moment (field-independent basis, Debye):
    X=             -1.3831    Y=             -5.2543    Z=             -2.6554  Tot=              6.0474
 Quadrupole moment (field-independent basis, Debye-Ang):
   XX=           -500.5807   YY=           -488.1484   ZZ=           -511.1172
   XY=              6.3870   XZ=             -6.4990   YZ=             -3.0793

 Normal termination of Gaussian 09 at Mon Feb  2 23:30:23 2015.
