 Gaussian 09, Revision A.02,
 Gaussian 09:  EM64L-G09RevA.02 11-Jun-2009

 -------------------
 #p sp B3LYP/cc-pVDZ
 -------------------

 ------------------------------------------
 Auto Spiro; and yes I said yes I will Yes.
 ------------------------------------------
 Symbolic Z-matrix:
 Charge =  0 Multiplicity = 1

                         Standard orientation:
 ---------------------------------------------------------------------
 Center     Atomic      Atomic             Coordinates (Angstroms)
 Number     Number       Type             X           Y           Z
 ---------------------------------------------------------------------
      1          6           0       -0.059352    0.221691    0.141608
      2          6           0       -0.847829    1.120118    1.104247
      3          6           0       -0.631856    0.719130    2.438920
      4          6           0        0.362018   -0.356917    2.452526
      5          6           0        0.724379   -0.654543    1.124824
      6          6           0       -1.005466   -0.587244   -0.762209
      7          6           0       -0.731401   -0.330294   -2.117810
      8          6           0        0.410540    0.580811   -2.202810
      9          6           0        0.819124    0.926423   -0.898047
     10          6           0       -2.021671   -1.451600   -0.385547
     11          6           0       -2.787451   -2.087106   -1.380810
     12          6           0       -2.514760   -1.826159   -2.737458
     13          6           0       -1.498856   -0.949310   -3.107878
     14          6           0        0.963335   -1.055782    3.501856
     15          6           0        1.913562   -2.034273    3.219102
     16          6           0        2.289783   -2.319182    1.892113
     17          6           0        1.679708   -1.614601    0.835952
     18          6           0       -1.747561    2.130620    0.799560
     19          6           0       -2.467323    2.744752    1.840040
     20          6           0       -2.261841    2.335344    3.168525
     21          6           0       -1.345349    1.330233    3.473449
     22          6           0        1.123024    1.054852   -3.306788
     23          6           0        2.252667    1.841035   -3.099030
     24          6           0        2.683509    2.160021   -1.799041
     25          6           0        1.942203    1.715718   -0.688466
     26          7           0       -3.809234   -3.004052   -1.014873
     27          7           0        3.290727   -3.288180    1.627293
     28          7           0       -3.419256    3.764871    1.541965
     29          7           0        3.897028    2.886058   -1.624842
     30          6           0        5.082277    2.392055   -2.231559
     31          6           0       -2.981515    4.953188    0.901191
     32          6           0        3.910764    4.069868   -0.840859
     33          6           0       -4.776270    3.583871    1.915164
     34          6           0       -3.532402   -3.972306   -0.002705
     35          6           0       -5.064004   -2.994914   -1.669245
     36          6           0        4.431193   -3.373654    2.480235
     37          6           0        3.199005   -4.135794    0.494509
     38          6           0        4.858213   -4.608311    2.978539
     39          6           0        5.981551   -4.704138    3.802651
     40          6           0        6.683825   -3.547660    4.160332
     41          6           0        6.254508   -2.303960    3.673293
     42          6           0        5.150624   -2.220069    2.836612
     43          6           0       -4.422052   -4.178174    1.055985
     44          6           0       -4.161565   -5.133840    2.040883
     45          6           0       -2.982082   -5.885187    1.987902
     46          6           0       -2.078422   -5.674885    0.935800
     47          6           0       -2.354614   -4.737350   -0.049872
     48          6           0       -5.758925   -4.194513   -1.882604
     49          6           0       -7.001876   -4.172081   -2.516811
     50          6           0       -7.570269   -2.972193   -2.967025
     51          6           0       -6.858564   -1.783283   -2.752369
     52          6           0       -5.624112   -1.783577   -2.101743
     53          6           0        4.345360   -4.432613   -0.255403
     54          6           0        4.246861   -5.269623   -1.368334
     55          6           0        3.017786   -5.819905   -1.758536
     56          6           0        1.882563   -5.510587   -0.995684
     57          6           0        1.963252   -4.683792    0.125167
     58          6           0       -1.787295    5.554457    1.321709
     59          6           0       -1.349784    6.724235    0.689877
     60          6           0       -2.091618    7.295933   -0.345532
     61          6           0       -3.284298    6.690291   -0.749777
     62          6           0       -3.737803    5.515626   -0.138404
     63          6           0       -5.376736    2.320806    1.840560
     64          6           0       -6.703851    2.125792    2.230552
     65          6           0       -7.466116    3.206671    2.683547
     66          6           0       -6.876368    4.477101    2.752254
     67          6           0       -5.550800    4.661423    2.385780
     68          6           0        2.857419    4.997461   -0.929648
     69          6           0        2.864671    6.159876   -0.170307
     70          6           0        3.935660    6.435424    0.691770
     71          6           0        4.991252    5.522785    0.788384
     72          6           0        4.967232    4.346976    0.035624
     73          6           0        5.307983    1.007785   -2.270729
     74          6           0        6.465365    0.516936   -2.886766
     75          6           0        7.403577    1.390669   -3.441435
     76          6           0        7.172646    2.767077   -3.385153
     77          6           0        6.012618    3.280456   -2.793198
     78          1           0        2.282495    1.956904    0.314406
     79          1           0       -1.926037    2.438258   -0.226730
     80          1           0       -2.831075    2.817013    3.957981
     81          1           0       -1.193604    1.030084    4.507214
     82          1           0        0.694544   -0.850736    4.535080
     83          1           0        2.379618   -2.586257    4.028618
     84          1           0        0.814011    0.805110   -4.318583
     85          1           0        2.832404    2.201782   -3.942961
     86          1           0       -1.299919   -0.769080   -4.161350
     87          1           0       -3.107082   -2.323802   -3.498286
     88          1           0        1.967153   -1.822051   -0.189571
     89          1           0       -2.232334   -1.646945    0.661384
     90          8           0        3.854229    7.611117    1.394722
     91          6           0        4.925908    7.944358    2.260151
     92          8           0       -8.775707    3.132608    3.079137
     93          6           0       -9.413565    1.869348    3.025897
     94          8           0        7.786419   -3.521822    4.967312
     95          8           0       -2.623913   -6.839345    2.900083
     96          6           0       -3.495094   -7.079848    3.991334
     97          6           0        8.264526   -4.751613    5.485594
     98          1           0        6.813650   -1.416215    3.952059
     99          1           0        4.833331   -1.254741    2.454448
    100          1           0       -5.334227   -3.591665    1.107238
    101          1           0       -4.876565   -5.270334    2.844192
    102          1           0        6.286390   -5.678778    4.166365
    103          1           0        4.309243   -5.506914    2.714377
    104          1           0       -1.168550   -6.264590    0.892405
    105          1           0       -1.646087   -4.594143   -0.859214
    106          1           0        5.785549    3.639870    0.125719
    107          1           0        5.828662    5.702076    1.453469
    108          1           0        2.046264    6.869686   -0.237665
    109          1           0        2.028209    4.802096   -1.602312
    110          1           0       -7.129012    1.131003    2.159104
    111          1           0       -4.801259    1.476287    1.475142
    112          1           0       -7.474106    5.308130    3.114404
    113          1           0       -5.104592    5.647759    2.460387
    114          1           0       -8.916745    1.135802    3.675796
    115          1           0       -9.445893    1.473314    2.001553
    116          1           0      -10.433374    2.031317    3.381047
    117          1           0       -4.481000   -7.428634    3.654599
    118          1           0       -3.625678   -6.182490    4.611324
    119          1           0       -3.021540   -7.862585    4.587258
    120          1           0        9.139402   -4.503005    6.089328
    121          1           0        8.562095   -5.440590    4.683612
    122          1           0        7.514530   -5.242572    6.120427
    123          1           0        5.874615    8.031858    1.713552
    124          1           0        5.043938    7.205482    3.064598
    125          1           0        4.671404    8.912597    2.695732
    126          8           0       -3.940942    7.319946   -1.770452
    127          1           0       -4.649820    5.025820   -0.452928
    128          1           0       -1.752842    8.207417   -0.823955
    129          8           0       -0.208440    7.391497    1.038636
    130          1           0       -1.232244    5.109615    2.136387
    131          1           0        4.586488    0.342476   -1.816955
    132          8           0        6.771448   -0.811023   -2.975288
    133          1           0        8.302532    1.005470   -3.908095
    134          8           0        8.140707    3.545181   -3.958387
    135          1           0        5.812838    4.343177   -2.767425
    136          8           0        5.419903   -5.481138   -2.042153
    137          1           0        5.312125   -4.023386    0.011601
    138          1           0        2.946653   -6.462189   -2.624280
    139          8           0        0.632401   -5.998060   -1.270461
    140          1           0        1.065583   -4.479617    0.696364
    141          1           0       -5.119681   -0.839469   -1.936971
    142          8           0       -7.313281   -0.550957   -3.135643
    143          1           0       -8.529466   -2.963499   -3.463921
    144          8           0       -7.595850   -5.395150   -2.674323
    145          1           0       -5.348683   -5.146229   -1.568668
    146          6           0        7.976557    4.952814   -3.931012
    147          6           0        5.401898   -6.310310   -3.192413
    148          6           0       -8.840403   -5.461668   -3.346915
    149          6           0       -5.167153    6.769857   -2.221782
    150          1           0        8.863752    5.366457   -4.414900
    151          1           0        7.912594    5.334305   -2.903288
    152          1           0        7.082618    5.268629   -4.485423
    153          1           0        6.429662   -6.334359   -3.559358
    154          1           0        4.748110   -5.903652   -3.975473
    155          1           0        5.081069   -7.332056   -2.949258
    156          1           0       -9.113351   -6.518696   -3.367996
    157          1           0       -8.766539   -5.087386   -4.377041
    158          1           0       -9.620529   -4.899069   -2.816042
    159          1           0       -5.519168    7.434650   -3.013261
    160          1           0       -5.915351    6.733487   -1.418914
    161          1           0       -5.032291    5.759874   -2.631416
    162          6           0        0.469076   -6.884799   -2.365733
    163          1           0       -0.589628   -7.149288   -2.378418
    164          1           0        1.069567   -7.795450   -2.240225
    165          1           0        0.733530   -6.404752   -3.317101
    166          6           0        5.866005   -1.748831   -2.410516
    167          1           0        6.294338   -2.736531   -2.588863
    168          1           0        4.877693   -1.692534   -2.885016
    169          1           0        5.750741   -1.597625   -1.329582
    170          6           0        0.484965    6.969911    2.207241
    171          1           0        1.344931    7.634160    2.298476
    172          1           0        0.846309    5.938859    2.113524
    173          1           0       -0.154095    7.053270    3.096208
    174          6           0       -8.572118   -0.462962   -3.778437
    175          1           0       -8.729922    0.597722   -3.983804
    176          1           0       -9.383854   -0.830566   -3.135868
    177          1           0       -8.584764   -1.019148   -4.725671
 ---------------------------------------------------------------------

 SCF Done:  E(RB3LYP) =  -4406.63407376     A.U. after   15 cycles

 The electronic state is 1-A.
 Alpha  occ. eigenvalues --  -19.17387 -19.17293 -19.16978 -19.16698 -19.16663
 Alpha  occ. eigenvalues --  -19.16617 -19.16578 -19.16245 -19.15851 -19.15829
 Alpha  occ. eigenvalues --  -19.15775 -19.15506 -14.35424 -14.35018 -14.34612
 Alpha  occ. eigenvalues --  -14.34365 -10.24879 -10.24858 -10.24442 -10.24434
 Alpha  occ. eigenvalues --  -10.24347 -10.24326 -10.24313 -10.24231 -10.24133
 Alpha  occ. eigenvalues --  -10.24080 -10.23969 -10.23946 -10.23946 -10.23704
 Alpha  occ. eigenvalues --  -10.23696 -10.23589 -10.23533 -10.23482 -10.23458
 Alpha  occ. eigenvalues --  -10.23417 -10.23193 -10.23165 -10.22877 -10.22509
 Alpha  occ. eigenvalues --  -10.22499 -10.22385 -10.22365 -10.22207 -10.22066
 Alpha  occ. eigenvalues --  -10.21990 -10.21985 -10.21980 -10.21924 -10.21543
 Alpha  occ. eigenvalues --  -10.21484 -10.21464 -10.21050 -10.18996 -10.18974
 Alpha  occ. eigenvalues --  -10.18945 -10.18918 -10.18913 -10.18855 -10.18837
 Alpha  occ. eigenvalues --  -10.18699 -10.18641 -10.18604 -10.18572 -10.18530
 Alpha  occ. eigenvalues --  -10.18485 -10.18477 -10.18477 -10.18396 -10.18395
 Alpha  occ. eigenvalues --  -10.18340 -10.18333 -10.18333 -10.18322 -10.18233
 Alpha  occ. eigenvalues --  -10.18216 -10.18214 -10.18191 -10.18179 -10.18141
 Alpha  occ. eigenvalues --  -10.18121 -10.18108 -10.18055 -10.18036 -10.18026
 Alpha  occ. eigenvalues --  -10.17981 -10.17923 -10.17785 -10.17770 -10.17645
 Alpha  occ. eigenvalues --  -10.17599 -10.17256 -10.17151 -10.16654 -10.16642
 Alpha  occ. eigenvalues --  -10.16631 -10.16579 -10.16545 -10.16450 -10.16111
 Alpha  occ. eigenvalues --  -10.15975  -1.06918  -1.06742  -1.06637  -1.06399
 Alpha  occ. eigenvalues --   -1.06221  -1.06220  -1.06154  -1.05857  -1.05542
 Alpha  occ. eigenvalues --   -1.05506  -1.05213  -1.05110  -0.96206  -0.95772
 Alpha  occ. eigenvalues --   -0.95498  -0.95360  -0.89789  -0.86879  -0.85421
 Alpha  occ. eigenvalues --   -0.84897  -0.84819  -0.84730  -0.84477  -0.84403
 Alpha  occ. eigenvalues --   -0.83685  -0.83375  -0.82492  -0.82397  -0.80173
 Alpha  occ. eigenvalues --   -0.78031  -0.76864  -0.76489  -0.76102  -0.76022
 Alpha  occ. eigenvalues --   -0.75724  -0.75677  -0.75543  -0.75286  -0.74996
 Alpha  occ. eigenvalues --   -0.74723  -0.74433  -0.74332  -0.74193  -0.74174
 Alpha  occ. eigenvalues --   -0.74095  -0.74023  -0.73873  -0.73521  -0.72722
 Alpha  occ. eigenvalues --   -0.72408  -0.71883  -0.71481  -0.70818  -0.70759
 Alpha  occ. eigenvalues --   -0.69584  -0.69554  -0.68862  -0.68806  -0.68441
 Alpha  occ. eigenvalues --   -0.68184  -0.68137  -0.68076  -0.67719  -0.66873
 Alpha  occ. eigenvalues --   -0.66852  -0.64143  -0.63324  -0.62379  -0.61995
 Alpha  occ. eigenvalues --   -0.61926  -0.61210  -0.60909  -0.60700  -0.60344
 Alpha  occ. eigenvalues --   -0.60245  -0.59900  -0.59700  -0.59514  -0.58991
 Alpha  occ. eigenvalues --   -0.58715  -0.58212  -0.58152  -0.58076  -0.57313
 Alpha  occ. eigenvalues --   -0.57228  -0.56475  -0.56144  -0.56084  -0.55395
 Alpha  occ. eigenvalues --   -0.54583  -0.54069  -0.53563  -0.53464  -0.53368
 Alpha  occ. eigenvalues --   -0.53146  -0.52929  -0.52554  -0.52104  -0.51695
 Alpha  occ. eigenvalues --   -0.51585  -0.50642  -0.50411  -0.50158  -0.49701
 Alpha  occ. eigenvalues --   -0.49601  -0.49460  -0.49041  -0.48836  -0.48688
 Alpha  occ. eigenvalues --   -0.48487  -0.48391  -0.48299  -0.48018  -0.48009
 Alpha  occ. eigenvalues --   -0.47903  -0.47701  -0.47536  -0.47500  -0.47435
 Alpha  occ. eigenvalues --   -0.47318  -0.47286  -0.46907  -0.46876  -0.46832
 Alpha  occ. eigenvalues --   -0.46781  -0.46727  -0.46656  -0.46540  -0.46492
 Alpha  occ. eigenvalues --   -0.46358  -0.46214  -0.45900  -0.45820  -0.45768
 Alpha  occ. eigenvalues --   -0.45413  -0.45299  -0.45097  -0.44773  -0.44245
 Alpha  occ. eigenvalues --   -0.44084  -0.44037  -0.43858  -0.43758  -0.43666
 Alpha  occ. eigenvalues --   -0.43394  -0.43317  -0.43180  -0.43092  -0.42988
 Alpha  occ. eigenvalues --   -0.42593  -0.42581  -0.42530  -0.42339  -0.42092
 Alpha  occ. eigenvalues --   -0.42016  -0.41842  -0.41780  -0.41576  -0.41391
 Alpha  occ. eigenvalues --   -0.41270  -0.41123  -0.40816  -0.40763  -0.40463
 Alpha  occ. eigenvalues --   -0.40226  -0.39656  -0.39584  -0.39432  -0.39382
 Alpha  occ. eigenvalues --   -0.39057  -0.38658  -0.38610  -0.38474  -0.38210
 Alpha  occ. eigenvalues --   -0.38105  -0.37967  -0.37756  -0.37706  -0.37624
 Alpha  occ. eigenvalues --   -0.37609  -0.37543  -0.37465  -0.37409  -0.37320
 Alpha  occ. eigenvalues --   -0.37161  -0.37115  -0.36854  -0.36684  -0.36542
 Alpha  occ. eigenvalues --   -0.36491  -0.36351  -0.36019  -0.35923  -0.35820
 Alpha  occ. eigenvalues --   -0.35453  -0.35387  -0.35268  -0.35097  -0.34696
 Alpha  occ. eigenvalues --   -0.34438  -0.34255  -0.34178  -0.33901  -0.33837
 Alpha  occ. eigenvalues --   -0.33404  -0.33298  -0.33144  -0.33022  -0.32975
 Alpha  occ. eigenvalues --   -0.32898  -0.32847  -0.32692  -0.32604  -0.32450
 Alpha  occ. eigenvalues --   -0.32310  -0.32290  -0.32226  -0.32189  -0.32047
 Alpha  occ. eigenvalues --   -0.31896  -0.31781  -0.31728  -0.31516  -0.31178
 Alpha  occ. eigenvalues --   -0.30716  -0.30469  -0.29285  -0.28974  -0.26866
 Alpha  occ. eigenvalues --   -0.26626  -0.26194  -0.25665  -0.25450  -0.25272
 Alpha  occ. eigenvalues --   -0.25027  -0.24870  -0.24769  -0.24471  -0.24290
 Alpha  occ. eigenvalues --   -0.23878  -0.23429  -0.23060  -0.22472  -0.21912
 Alpha  occ. eigenvalues --   -0.21872  -0.21696  -0.21038  -0.20756  -0.20630
 Alpha  occ. eigenvalues --   -0.20461  -0.18111  -0.17907  -0.16684  -0.16547
 Alpha virt. eigenvalues --   -0.03444  -0.03324  -0.02067  -0.01907  -0.01166
 Alpha virt. eigenvalues --   -0.00829  -0.00523  -0.00101  -0.00081   0.00031
 Alpha virt. eigenvalues --    0.00051   0.00144   0.00608   0.01199   0.01491

 Mulliken atomic charges:
              1
     1  C   -0.303585
     2  C    0.103709
     3  C    0.048376
     4  C    0.042369
     5  C    0.096026
     6  C    0.109405
     7  C    0.043001
     8  C    0.044796
     9  C    0.091847
    10  C    0.025837
    11  C    0.071453
    12  C    0.072538
    13  C   -0.008508
    14  C   -0.010548
    15  C    0.060929
    16  C    0.084170
    17  C    0.019812
    18  C    0.046218
    19  C    0.033599
    20  C    0.086784
    21  C   -0.011084
    22  C   -0.008044
    23  C    0.086322
    24  C    0.037956
    25  C    0.036721
    26  N   -0.281896
    27  N   -0.279525
    28  N   -0.283366
    29  N   -0.279548
    30  C    0.052393
    31  C    0.044874
    32  C    0.058906
    33  C    0.067519
    34  C    0.029716
    35  C    0.105637
    36  C    0.021870
    37  C    0.083944
    38  C    0.054178
    39  C   -0.001809
    40  C    0.120777
    41  C    0.050793
    42  C    0.057210
    43  C    0.058037
    44  C   -0.002070
    45  C    0.125344
    46  C    0.037336
    47  C    0.051166
    48  C    0.013397
    49  C    0.135124
    50  C   -0.076003
    51  C    0.135547
    52  C    0.014039
    53  C    0.018958
    54  C    0.136194
    55  C   -0.061392
    56  C    0.137704
    57  C    0.028927
    58  C   -0.008613
    59  C    0.155202
    60  C    0.028174
    61  C    0.153810
    62  C   -0.017398
    63  C    0.029935
    64  C   -0.005905
    65  C    0.116690
    66  C    0.045735
    67  C    0.042163
    68  C    0.039664
    69  C    0.040275
    70  C    0.113675
    71  C    0.000388
    72  C    0.034492
    73  C   -0.024401
    74  C    0.153435
    75  C    0.025775
    76  C    0.152951
    77  C   -0.028225
    78  H   -0.050455
    79  H   -0.049361
    80  H   -0.044077
    81  H   -0.054256
    82  H   -0.054922
    83  H   -0.032049
    84  H   -0.053318
    85  H   -0.038051
    86  H   -0.054968
    87  H   -0.033526
    88  H   -0.037697
    89  H   -0.042095
    90  O   -0.288197
    91  C    0.130435
    92  O   -0.284519
    93  C    0.131967
    94  O   -0.280535
    95  O   -0.280629
    96  C    0.130823
    97  C    0.129880
    98  H   -0.028881
    99  H   -0.028541
   100  H   -0.035911
   101  H   -0.036506
   102  H   -0.033905
   103  H   -0.032448
   104  H   -0.026300
   105  H   -0.031490
   106  H   -0.028501
   107  H   -0.036429
   108  H   -0.013912
   109  H   -0.027295
   110  H   -0.034957
   111  H   -0.027031
   112  H   -0.034048
   113  H   -0.027043
   114  H    0.023324
   115  H    0.023826
   116  H    0.029988
   117  H    0.024213
   118  H    0.025213
   119  H    0.031793
   120  H    0.033831
   121  H    0.026488
   122  H    0.025418
   123  H    0.025805
   124  H    0.024441
   125  H    0.032940
   126  O   -0.286725
   127  H   -0.039873
   128  H   -0.037386
   129  O   -0.295802
   130  H   -0.045181
   131  H   -0.035890
   132  O   -0.287655
   133  H   -0.038995
   134  O   -0.287302
   135  H   -0.037611
   136  O   -0.289426
   137  H   -0.027399
   138  H   -0.049805
   139  O   -0.288605
   140  H   -0.020768
   141  H   -0.028395
   142  O   -0.283660
   143  H   -0.054153
   144  O   -0.284970
   145  H   -0.032309
   146  C    0.135308
   147  C    0.134179
   148  C    0.137103
   149  C    0.134210
   150  H    0.028692
   151  H    0.025583
   152  H    0.025863
   153  H    0.035405
   154  H    0.026876
   155  H    0.026242
   156  H    0.030953
   157  H    0.023454
   158  H    0.022840
   159  H    0.028732
   160  H    0.027214
   161  H    0.026836
   162  C    0.133085
   163  H    0.039150
   164  H    0.026550
   165  H    0.027990
   166  C    0.123030
   167  H    0.032644
   168  H    0.026959
   169  H    0.030324
   170  C    0.121085
   171  H    0.036204
   172  H    0.037086
   173  H    0.023332
   174  C    0.137096
   175  H    0.031904
   176  H    0.022090
   177  H    0.023452
 Sum of Mulliken atomic charges =   0.00000

 Dipole moment (field-independent basis, Debye):
    X=             -2.8878    Y=             -6.1942    Z=              0.9172  Tot=              6.8956
 Quadrupole moment (field-independent basis, Debye-Ang):
   XX=           -515.0837   YY=           -540.2291   ZZ=           -538.3341
   XY=             17.2473   XZ=             34.8069   YZ=              7.4009

 Normal termination of Gaussian 09 at Mon Feb  2 23:58:04 2015.
