 Gaussian 09, Revision A.02,
 Gaussian 09:  EM64L-G09RevA.02 11-Jun-2009

 -------------------
 #p sp B3LYP/cc-pVDZ
 -------------------

 ------------------------------------------
 Auto Spiro; and yes I said yes I will Yes.
 ------------------------------------------
 Symbolic Z-matrix:
 Charge =  0 Multiplicity = 1

                         Standard orientation:
 ---------------------------------------------------------------------
 Center     Atomic      Atomic             Coordinates (Angstroms)
 Number     Number       Type             X           Y           Z
 ---------------------------------------------------------------------
      1          6           0       -0.044978   -0.030016   -0.113100
      2          6           0        0.722977   -0.921813    0.869724
      3          6           0        0.412972   -0.573761    2.199242
      4          6           0       -0.552392    0.527180    2.185568
      5          6           0       -0.834772    0.866458    0.847817
      6          6           0        0.859758    0.748170   -1.075572
      7          6           0        0.536319    0.445077   -2.412626
      8          6           0       -0.568733   -0.515585   -2.424020
      9          6           0       -0.925418   -0.812519   -1.094359
     10          6           0        1.883980    1.628013   -0.763846
     11          6           0        2.605637    2.241265   -1.805674
     12          6           0        2.272294    1.949288   -3.142161
     13          6           0        1.252825    1.050600   -3.447895
     14          6           0       -1.181563    1.225860    3.218597
     15          6           0       -2.071062    2.252328    2.910189
     16          6           0       -2.360093    2.586904    1.572999
     17          6           0       -1.731866    1.874293    0.532799
     18          6           0        1.625305   -1.932878    0.580544
     19          6           0        2.231349   -2.637514    1.638540
     20          6           0        1.914796   -2.295034    2.966872
     21          6           0        1.019426   -1.266104    3.250048
     22          6           0       -1.259251   -1.126347   -3.473902
     23          6           0       -2.285074   -2.024096   -3.189704
     24          6           0       -2.651071   -2.311600   -1.860211
     25          6           0       -1.956557   -1.691670   -0.803734
     26          7           0        3.650946    3.156670   -1.508690
     27          7           0       -3.289841    3.619404    1.284229
     28          7           0        3.167989   -3.672872    1.375218
     29          7           0       -3.699695   -3.228581   -1.587511
     30          6           0       -4.882269   -3.228401   -2.373662
     31          6           0        2.949035   -4.606341    0.330230
     32          6           0       -3.566290   -4.151299   -0.510010
     33          6           0        4.349998   -3.760392    2.167312
     34          6           0        3.468650    4.108841   -0.463568
     35          6           0        4.860506    3.134884   -2.247580
     36          6           0       -4.470105    3.735047    2.077546
     37          6           0       -3.071912    4.519695    0.210611
     38          6           0       -4.852715    4.966604    2.618475
     39          6           0       -6.012703    5.088329    3.386555
     40          6           0       -6.798543    3.959727    3.645509
     41          6           0       -6.414906    2.718619    3.116181
     42          6           0       -5.273090    2.610744    2.334824
     43          6           0        4.464658    4.324604    0.494444
     44          6           0        4.296290    5.265477    1.512560
     45          6           0        3.103887    5.992148    1.600731
     46          6           0        2.094049    5.771739    0.652311
     47          6           0        2.278527    4.851236   -0.370226
     48          6           0        5.520728    4.328325   -2.559398
     49          6           0        6.727935    4.310119   -3.267994
     50          6           0        7.282201    3.097946   -3.694765
     51          6           0        6.607541    1.911458   -3.388027
     52          6           0        5.419056    1.911757   -2.669214
     53          6           0       -4.149061    4.970445   -0.559406
     54          6           0       -3.946686    5.880152   -1.604148
     55          6           0       -2.659410    6.337361   -1.906998
     56          6           0       -1.588202    5.871739   -1.137171
     57          6           0       -1.774365    4.983015   -0.085643
     58          6           0        1.659645   -5.079102    0.046923
     59          6           0        1.477192   -6.001612   -0.985033
     60          6           0        2.549858   -6.478255   -1.730080
     61          6           0        3.839812   -6.009612   -1.441979
     62          6           0        4.040766   -5.071902   -0.426617
     63          6           0        5.134803   -2.628655    2.411593
     64          6           0        6.284822   -2.703225    3.201022
     65          6           0        6.680291   -3.931534    3.741982
     66          6           0        5.904520   -5.073749    3.492666
     67          6           0        4.750848   -4.986789    2.726461
     68          6           0       -2.379187   -4.884691   -0.335141
     69          6           0       -2.248175   -5.783431    0.714498
     70          6           0       -3.308301   -5.991345    1.609703
     71          6           0       -4.497394   -5.273665    1.440678
     72          6           0       -4.613200   -4.354258    0.395630
     73          6           0       -5.459687   -2.024661   -2.799271
     74          6           0       -6.622072   -2.054396   -3.572177
     75          6           0       -7.231635   -3.255862   -3.914833
     76          6           0       -6.656794   -4.460543   -3.482884
     77          6           0       -5.483531   -4.451340   -2.725656
     78          1           0       -2.234951   -1.904703    0.223631
     79          1           0        1.870168   -2.185008   -0.446483
     80          1           0        2.379867   -2.846692    3.777451
     81          1           0        0.790471   -1.021690    4.284329
     82          1           0       -0.975622    0.987606    4.259150
     83          1           0       -2.553073    2.808346    3.707590
     84          1           0       -0.995178   -0.921956   -4.508451
     85          1           0       -2.815706   -2.513539   -3.999761
     86          1           0        1.014103    0.841416   -4.487627
     87          1           0        2.823179    2.435432   -3.940771
     88          1           0       -1.957061    2.116702   -0.500918
     89          1           0        2.136697    1.847219    0.268943
     90          8           0       -3.081350   -6.907104    2.598941
     91          6           0       -4.113770   -7.141085    3.541279
     92          8           0        7.789672   -4.123387    4.517971
     93          6           0        8.606606   -3.000975    4.803893
     94          8           0       -7.944016    3.960086    4.391963
     95          8           0        2.828380    6.928384    2.558018
     96          6           0        3.812703    7.181852    3.545550
     97          6           0       -8.378205    5.189469    4.947888
     98          1           0       -7.038061    1.852957    3.318239
     99          1           0       -4.990890    1.648732    1.918402
    100          1           0        5.388185    3.756806    0.439285
    101          1           0        5.093462    5.408485    2.233243
    102          1           0       -6.281026    6.060218    3.784873
    103          1           0       -4.240864    5.843419    2.430264
    104          1           0        1.175278    6.345118    0.729693
    105          1           0        1.493826    4.693337   -1.103716
    106          1           0       -5.534024   -3.791421    0.278566
    107          1           0       -5.331904   -5.405128    2.120179
    108          1           0       -1.332470   -6.349822    0.854757
    109          1           0       -1.554890   -4.737387   -1.026195
    110          1           0        6.865033   -1.803512    3.371912
    111          1           0        4.839522   -1.674874    1.985261
    112          1           0        6.217782   -6.018561    3.926147
    113          1           0        4.149415   -5.873296    2.550783
    114          1           0        8.052147   -2.224947    5.348776
    115          1           0        9.029204   -2.563601    3.889116
    116          1           0        9.418001   -3.372356    5.432791
    117          1           0        4.745751    7.554527    3.101393
    118          1           0        4.031825    6.283731    4.138766
    119          1           0        3.392974    7.950056    4.197858
    120          1           0       -9.296796    4.964706    5.493332
    121          1           0       -8.592908    5.933143    4.168498
    122          1           0       -7.636406    5.603963    5.643973
    123          1           0       -5.022419   -7.527269    3.059525
    124          1           0       -4.364849   -6.230249    4.101406
    125          1           0       -3.725777   -7.892571    4.231563
    126          8           0        4.841194   -6.518742   -2.220868
    127          1           0        5.028857   -4.688336   -0.208124
    128          1           0        2.419095   -7.203566   -2.526161
    129          1           0        0.476711   -6.369432   -1.198859
    130          1           0        0.814734   -4.729870    0.629913
    131          1           0       -5.004768   -1.080075   -2.522424
    132          1           0       -7.067577   -1.117871   -3.897407
    133          1           0       -8.141069   -3.290133   -4.505500
    134          8           0       -7.310163   -5.598170   -3.867552
    135          1           0       -5.018579   -5.373400   -2.401349
    136          8           0       -5.078039    6.249140   -2.278442
    137          1           0       -5.157467    4.625276   -0.362118
    138          1           0       -2.481975    7.038243   -2.713780
    139          1           0       -0.586403    6.231090   -1.359377
    140          1           0       -0.931251    4.647509    0.507886
    141          1           0        4.921772    0.979623   -2.425662
    142          1           0        7.034332    0.964085   -3.707512
    143          1           0        8.213022    3.064191   -4.248000
    144          8           0        7.278540    5.539604   -3.506067
    145          1           0        5.111845    5.285953   -2.258026
    146          6           0       -6.779729   -6.849063   -3.462328
    147          6           0       -4.942106    7.133354   -3.377804
    148          6           0        8.480441    5.600417   -4.254552
    149          6           0        6.170254   -6.090928   -1.974311
    150          1           0       -7.457708   -7.605394   -3.862751
    151          1           0       -6.741680   -6.938303   -2.368465
    152          1           0       -5.773224   -7.013562   -3.869815
    153          1           0       -5.949928    7.278940   -3.771710
    154          1           0       -4.303935    6.707570   -4.163684
    155          1           0       -4.531002    8.104076   -3.069391
    156          1           0        8.729272    6.660336   -4.336507
    157          1           0        8.353215    5.179486   -5.261018
    158          1           0        9.301185    5.074822   -3.747945
    159          1           0        6.795732   -6.632177   -2.686981
    160          1           0        6.491299   -6.332993   -0.952454
    161          1           0        6.285619   -5.011209   -2.139250
 ---------------------------------------------------------------------

 SCF Done:  E(RB3LYP) =  -3948.52097606     A.U. after   15 cycles

 The electronic state is 1-A.
 Alpha  occ. eigenvalues --  -19.17033 -19.16789 -19.16776 -19.16772 -19.16595
 Alpha  occ. eigenvalues --  -19.16408 -19.16377 -19.16367 -14.35185 -14.35178
 Alpha  occ. eigenvalues --  -14.35108 -14.35082 -10.24449 -10.24315 -10.24209
 Alpha  occ. eigenvalues --  -10.24199 -10.24194 -10.24184 -10.24078 -10.24075
 Alpha  occ. eigenvalues --  -10.24055 -10.23978 -10.23963 -10.23949 -10.23949
 Alpha  occ. eigenvalues --  -10.23697 -10.23660 -10.23636 -10.22476 -10.22373
 Alpha  occ. eigenvalues --  -10.22325 -10.22285 -10.22188 -10.22170 -10.22152
 Alpha  occ. eigenvalues --  -10.22149 -10.21959 -10.21819 -10.21805 -10.21704
 Alpha  occ. eigenvalues --  -10.20705 -10.18893 -10.18846 -10.18837 -10.18706
 Alpha  occ. eigenvalues --  -10.18703 -10.18701 -10.18695 -10.18667 -10.18666
 Alpha  occ. eigenvalues --  -10.18664 -10.18662 -10.18647 -10.18643 -10.18624
 Alpha  occ. eigenvalues --  -10.18613 -10.18609 -10.18585 -10.18538 -10.18469
 Alpha  occ. eigenvalues --  -10.18377 -10.18370 -10.18332 -10.18332 -10.18313
 Alpha  occ. eigenvalues --  -10.18313 -10.18295 -10.18273 -10.18248 -10.18217
 Alpha  occ. eigenvalues --  -10.18216 -10.18142 -10.18136 -10.18053 -10.18049
 Alpha  occ. eigenvalues --  -10.17958 -10.17955 -10.17952 -10.17937 -10.17864
 Alpha  occ. eigenvalues --  -10.17850 -10.17785 -10.17647 -10.17605 -10.17559
 Alpha  occ. eigenvalues --  -10.17424 -10.17408 -10.17222 -10.17216 -10.17213
 Alpha  occ. eigenvalues --  -10.17182 -10.17147 -10.17142  -1.06679  -1.06438
 Alpha  occ. eigenvalues --   -1.06434  -1.06429  -1.06259  -1.06054  -1.06032
 Alpha  occ. eigenvalues --   -1.06027  -0.95928  -0.95918  -0.95856  -0.95813
 Alpha  occ. eigenvalues --   -0.89557  -0.86658  -0.85264  -0.85173  -0.85111
 Alpha  occ. eigenvalues --   -0.85080  -0.84610  -0.84557  -0.83867  -0.83635
 Alpha  occ. eigenvalues --   -0.82596  -0.82577  -0.80034  -0.77938  -0.76700
 Alpha  occ. eigenvalues --   -0.76213  -0.75985  -0.75880  -0.75778  -0.75293
 Alpha  occ. eigenvalues --   -0.75233  -0.75089  -0.75075  -0.74979  -0.74938
 Alpha  occ. eigenvalues --   -0.74328  -0.74275  -0.74143  -0.74033  -0.73987
 Alpha  occ. eigenvalues --   -0.73798  -0.73567  -0.72507  -0.72396  -0.70811
 Alpha  occ. eigenvalues --   -0.70636  -0.69805  -0.69716  -0.69160  -0.68967
 Alpha  occ. eigenvalues --   -0.68629  -0.68559  -0.67909  -0.67575  -0.67445
 Alpha  occ. eigenvalues --   -0.63992  -0.63296  -0.62517  -0.62258  -0.61962
 Alpha  occ. eigenvalues --   -0.61615  -0.61154  -0.61113  -0.60832  -0.60536
 Alpha  occ. eigenvalues --   -0.60467  -0.59592  -0.59300  -0.58997  -0.58965
 Alpha  occ. eigenvalues --   -0.58689  -0.58587  -0.58203  -0.57909  -0.57872
 Alpha  occ. eigenvalues --   -0.56335  -0.56131  -0.56041  -0.55336  -0.53867
 Alpha  occ. eigenvalues --   -0.53824  -0.53698  -0.53566  -0.53320  -0.53190
 Alpha  occ. eigenvalues --   -0.52976  -0.52562  -0.51858  -0.51554  -0.51278
 Alpha  occ. eigenvalues --   -0.50196  -0.49979  -0.49729  -0.49166  -0.49118
 Alpha  occ. eigenvalues --   -0.48933  -0.48859  -0.48160  -0.48042  -0.47963
 Alpha  occ. eigenvalues --   -0.47918  -0.47783  -0.47623  -0.47372  -0.47260
 Alpha  occ. eigenvalues --   -0.47013  -0.46924  -0.46845  -0.46730  -0.46660
 Alpha  occ. eigenvalues --   -0.46655  -0.46634  -0.46513  -0.46373  -0.46269
 Alpha  occ. eigenvalues --   -0.46259  -0.46230  -0.45769  -0.45531  -0.44755
 Alpha  occ. eigenvalues --   -0.44628  -0.44544  -0.44522  -0.43752  -0.43632
 Alpha  occ. eigenvalues --   -0.43375  -0.43309  -0.43210  -0.42923  -0.42917
 Alpha  occ. eigenvalues --   -0.42761  -0.42597  -0.42381  -0.42362  -0.42291
 Alpha  occ. eigenvalues --   -0.42226  -0.42075  -0.41979  -0.41797  -0.41679
 Alpha  occ. eigenvalues --   -0.41584  -0.41471  -0.41270  -0.41083  -0.40959
 Alpha  occ. eigenvalues --   -0.40814  -0.40719  -0.40278  -0.40126  -0.39569
 Alpha  occ. eigenvalues --   -0.39434  -0.39170  -0.38830  -0.38451  -0.38019
 Alpha  occ. eigenvalues --   -0.37860  -0.37819  -0.37747  -0.37667  -0.37515
 Alpha  occ. eigenvalues --   -0.37492  -0.37423  -0.37111  -0.36811  -0.36774
 Alpha  occ. eigenvalues --   -0.36624  -0.36535  -0.36468  -0.36441  -0.36367
 Alpha  occ. eigenvalues --   -0.36327  -0.36258  -0.36016  -0.35972  -0.35728
 Alpha  occ. eigenvalues --   -0.35644  -0.35307  -0.35170  -0.35064  -0.34867
 Alpha  occ. eigenvalues --   -0.34023  -0.33651  -0.33340  -0.33073  -0.33010
 Alpha  occ. eigenvalues --   -0.32936  -0.32816  -0.32670  -0.32605  -0.32567
 Alpha  occ. eigenvalues --   -0.32549  -0.32454  -0.32448  -0.32404  -0.32249
 Alpha  occ. eigenvalues --   -0.31982  -0.31961  -0.31911  -0.31820  -0.31609
 Alpha  occ. eigenvalues --   -0.30232  -0.29930  -0.28550  -0.28251  -0.26602
 Alpha  occ. eigenvalues --   -0.26513  -0.26203  -0.25640  -0.25453  -0.25269
 Alpha  occ. eigenvalues --   -0.25233  -0.24247  -0.24212  -0.24186  -0.24175
 Alpha  occ. eigenvalues --   -0.23746  -0.23603  -0.23380  -0.22471  -0.21940
 Alpha  occ. eigenvalues --   -0.21689  -0.21616  -0.21524  -0.21421  -0.18264
 Alpha  occ. eigenvalues --   -0.18216  -0.16582  -0.16460
 Alpha virt. eigenvalues --   -0.03183  -0.03106  -0.02015  -0.01903  -0.01452
 Alpha virt. eigenvalues --   -0.01156  -0.00675  -0.00595  -0.00477  -0.00380
 Alpha virt. eigenvalues --   -0.00152  -0.00046   0.00530   0.00940   0.01179

 Mulliken atomic charges:
              1
     1  C   -0.299065
     2  C    0.098578
     3  C    0.043024
     4  C    0.042181
     5  C    0.098615
     6  C    0.101053
     7  C    0.043073
     8  C    0.042124
     9  C    0.100355
    10  C    0.018497
    11  C    0.072704
    12  C    0.066064
    13  C   -0.009881
    14  C   -0.011423
    15  C    0.062519
    16  C    0.080064
    17  C    0.018797
    18  C    0.021685
    19  C    0.075619
    20  C    0.064624
    21  C   -0.011549
    22  C   -0.009792
    23  C    0.065862
    24  C    0.079107
    25  C    0.016087
    26  N   -0.278629
    27  N   -0.278673
    28  N   -0.277811
    29  N   -0.277341
    30  C    0.051883
    31  C    0.062556
    32  C    0.029712
    33  C    0.023178
    34  C    0.031763
    35  C    0.077353
    36  C    0.023039
    37  C    0.079480
    38  C    0.053751
    39  C   -0.001758
    40  C    0.120220
    41  C    0.049794
    42  C    0.060033
    43  C    0.052531
    44  C   -0.000587
    45  C    0.121488
    46  C    0.041864
    47  C    0.052699
    48  C    0.028726
    49  C    0.129820
    50  C   -0.028129
    51  C    0.054348
    52  C    0.019608
    53  C    0.032316
    54  C    0.130493
    55  C   -0.024422
    56  C    0.046929
    57  C    0.014153
    58  C    0.008115
    59  C    0.058037
    60  C    0.030795
    61  C    0.137068
    62  C   -0.018148
    63  C    0.048300
    64  C   -0.003317
    65  C    0.119068
    66  C    0.048817
    67  C    0.058330
    68  C    0.051820
    69  C    0.041440
    70  C    0.120405
    71  C   -0.002555
    72  C    0.047663
    73  C    0.016201
    74  C    0.066392
    75  C    0.028442
    76  C    0.136839
    77  C   -0.014441
    78  H   -0.041261
    79  H   -0.039504
    80  H   -0.034800
    81  H   -0.056178
    82  H   -0.056471
    83  H   -0.033549
    84  H   -0.054722
    85  H   -0.031293
    86  H   -0.054558
    87  H   -0.032067
    88  H   -0.037700
    89  H   -0.042706
    90  O   -0.279258
    91  C    0.130537
    92  O   -0.281518
    93  C    0.130225
    94  O   -0.281338
    95  O   -0.279393
    96  C    0.130597
    97  C    0.130179
    98  H   -0.030361
    99  H   -0.029525
   100  H   -0.032892
   101  H   -0.035790
   102  H   -0.034359
   103  H   -0.032336
   104  H   -0.025437
   105  H   -0.027142
   106  H   -0.030133
   107  H   -0.034621
   108  H   -0.024574
   109  H   -0.026267
   110  H   -0.033821
   111  H   -0.029809
   112  H   -0.030244
   113  H   -0.029282
   114  H    0.025888
   115  H    0.025118
   116  H    0.033381
   117  H    0.025128
   118  H    0.025403
   119  H    0.033041
   120  H    0.032991
   121  H    0.026198
   122  H    0.025090
   123  H    0.023862
   124  H    0.026655
   125  H    0.033559
   126  O   -0.284520
   127  H   -0.032375
   128  H   -0.039977
   129  H   -0.029337
   130  H   -0.027635
   131  H   -0.031386
   132  H   -0.033034
   133  H   -0.038943
   134  O   -0.284318
   135  H   -0.033727
   136  O   -0.282963
   137  H   -0.028485
   138  H   -0.043587
   139  H   -0.028874
   140  H   -0.026881
   141  H   -0.030503
   142  H   -0.035523
   143  H   -0.042937
   144  O   -0.282860
   145  H   -0.028331
   146  C    0.132724
   147  C    0.131816
   148  C    0.131745
   149  C    0.132657
   150  H    0.030787
   151  H    0.027486
   152  H    0.027086
   153  H    0.031368
   154  H    0.026089
   155  H    0.024575
   156  H    0.031639
   157  H    0.025266
   158  H    0.024180
   159  H    0.030491
   160  H    0.028414
   161  H    0.026355
 Sum of Mulliken atomic charges =   0.00000

 Dipole moment (field-independent basis, Debye):
    X=              2.9306    Y=              2.4864    Z=              2.7687  Tot=              4.7366
 Quadrupole moment (field-independent basis, Debye-Ang):
   XX=           -463.4683   YY=           -493.4701   ZZ=           -498.2178
   XY=             10.1788   XZ=            -11.7225   YZ=             -1.4554

 Normal termination of Gaussian 09 at Tue Feb  3 00:21:34 2015.
