 Gaussian 09, Revision A.02,
 Gaussian 09:  EM64L-G09RevA.02 11-Jun-2009

 -------------------
 #p sp B3LYP/cc-pVDZ
 -------------------

 ------------------------------------------
 Auto Spiro; and yes I said yes I will Yes.
 ------------------------------------------
 Symbolic Z-matrix:
 Charge =  0 Multiplicity = 1

                         Standard orientation:
 ---------------------------------------------------------------------
 Center     Atomic      Atomic             Coordinates (Angstroms)
 Number     Number       Type             X           Y           Z
 ---------------------------------------------------------------------
      1          6           0       -0.016548    0.049694    0.162459
      2          6           0        0.763366    0.936178   -0.816087
      3          6           0        0.445383    0.604460   -2.146763
      4          6           0       -0.548835   -0.471886   -2.139903
      5          6           0       -0.819357   -0.829311   -0.805862
      6          6           0        0.878509   -0.734641    1.129269
      7          6           0        0.538061   -0.447617    2.467500
      8          6           0       -0.590425    0.486342    2.475034
      9          6           0       -0.909986    0.820567    1.142579
     10          6           0        1.917219   -1.595348    0.821623
     11          6           0        2.648225   -2.193311    1.865410
     12          6           0        2.319483   -1.897983    3.199383
     13          6           0        1.272279   -1.028313    3.503705
     14          6           0       -1.210528   -1.121757   -3.185625
     15          6           0       -2.128820   -2.125998   -2.889825
     16          6           0       -2.401761   -2.481377   -1.557814
     17          6           0       -1.737924   -1.826453   -0.507637
     18          6           0        1.698273    1.922916   -0.532670
     19          6           0        2.327693    2.593717   -1.593894
     20          6           0        2.004453    2.266380   -2.921452
     21          6           0        1.071296    1.271852   -3.203332
     22          6           0       -1.343133    1.030115    3.517239
     23          6           0       -2.382270    1.914706    3.225693
     24          6           0       -2.681158    2.267300    1.898548
     25          6           0       -1.936125    1.699981    0.847862
     26          7           0        3.713097   -3.081818    1.569892
     27          7           0       -3.346594   -3.510560   -1.264578
     28          7           0        3.292787    3.610721   -1.319775
     29          7           0       -3.727821    3.186455    1.616909
     30          6           0       -4.980212    3.059870    2.272203
     31          6           0        2.858027    4.767033   -0.615183
     32          6           0       -3.549346    4.169658    0.605569
     33          6           0        4.627002    3.493952   -1.757592
     34          6           0        3.556788   -4.072974    0.568110
     35          6           0        4.943546   -2.961305    2.265936
     36          6           0       -4.681874   -3.435178   -1.711286
     37          6           0       -2.879291   -4.665704   -0.578776
     38          6           0       -5.486323   -4.580006   -1.802117
     39          6           0       -6.818616   -4.502693   -2.217052
     40          6           0       -7.377134   -3.271538   -2.568075
     41          6           0       -6.581579   -2.121701   -2.485369
     42          6           0       -5.262856   -2.197607   -2.057843
     43          6           0        4.605280   -4.413537   -0.291836
     44          6           0        4.446100   -5.399605   -1.271560
     45          6           0        3.217080   -6.048699   -1.414426
     46          6           0        2.164279   -5.718329   -0.550533
     47          6           0        2.333517   -4.753654    0.429348
     48          6           0        5.420655   -4.017681    3.072004
     49          6           0        6.646814   -3.908066    3.740155
     50          6           0        7.381634   -2.729252    3.625742
     51          6           0        6.928424   -1.662686    2.852382
     52          6           0        5.714627   -1.781767    2.161435
     53          6           0       -3.196074   -4.877689    0.778670
     54          6           0       -2.740592   -6.022228    1.446700
     55          6           0       -1.959169   -6.946068    0.755279
     56          6           0       -1.624339   -6.761975   -0.584641
     57          6           0       -2.089966   -5.621046   -1.254649
     58          6           0        2.076613    5.743068   -1.270550
     59          6           0        1.640975    6.885164   -0.582224
     60          6           0        1.998725    7.050296    0.754258
     61          6           0        2.773687    6.106083    1.425284
     62          6           0        3.197938    4.960076    0.739642
     63          6           0        5.163728    2.255534   -2.143522
     64          6           0        6.487602    2.139685   -2.577499
     65          6           0        7.316901    3.262839   -2.619527
     66          6           0        6.794508    4.501039   -2.225801
     67          6           0        5.475392    4.618150   -1.809641
     68          6           0       -2.316454    4.834388    0.479325
     69          6           0       -2.120915    5.789752   -0.505555
     70          6           0       -3.156748    6.122906   -1.387578
     71          6           0       -4.393861    5.484775   -1.260731
     72          6           0       -4.579405    4.509959   -0.275952
     73          6           0       -5.703827    1.839738    2.207594
     74          6           0       -6.947196    1.718397    2.836612
     75          6           0       -7.500273    2.814800    3.502299
     76          6           0       -6.816842    4.023700    3.563524
     77          6           0       -5.559609    4.142282    2.963297
     78          1           0       -2.185936    1.944354   -0.179427
     79          1           0        1.970174    2.168847    0.489218
     80          1           0        2.492621    2.809606   -3.723764
     81          1           0        0.829579    1.029714   -4.235316
     82          1           0       -1.007380   -0.859231   -4.220940
     83          1           0       -2.642110   -2.656153   -3.685235
     84          1           0       -1.124264    0.779020    4.552439
     85          1           0       -2.971795    2.341541    4.031448
     86          1           0        1.029700   -0.819285    4.543021
     87          1           0        2.887945   -2.368136    3.995964
     88          1           0       -1.970432   -2.093440    0.518695
     89          1           0        2.187494   -1.802948   -0.208781
     90          8           0       -2.853389    7.074797   -2.330895
     91          6           0       -3.868498    7.442630   -3.247993
     92          8           0        8.630751    3.261529   -3.022664
     93          6           0        9.188953    2.031526   -3.440936
     94          8           0       -8.669403   -3.082416   -2.994789
     95          8           0        2.936650   -7.011228   -2.355209
     96          6           0        3.966515   -7.369757   -3.258163
     97          6           0       -9.498097   -4.222599   -3.108693
     98          1           0       -7.019972   -1.165298   -2.754914
     99          1           0       -4.672906   -1.289910   -1.993392
    100          1           0        5.557942   -3.900885   -0.201363
    101          1           0        5.281910   -5.631539   -1.922472
    102          1           0       -7.400860   -5.416301   -2.269187
    103          1           0       -5.071767   -5.549064   -1.545916
    104          1           0        1.217982   -6.240679   -0.646302
    105          1           0        1.511985   -4.519495    1.097860
    106          1           0       -5.539760    4.010733   -0.195064
    107          1           0       -5.216862    5.719738   -1.926412
    108          1           0       -1.166174    6.297778   -0.593066
    109          1           0       -1.502439    4.590248    1.153971
    110          1           0        6.852622    1.161810   -2.872112
    111          1           0        4.543279    1.366764   -2.112236
    112          1           0        7.440819    5.373085   -2.263655
    113          1           0        5.093856    5.592148   -1.522784
    114          1           0        8.655678    1.614950   -4.307181
    115          1           0        9.187413    1.285982   -2.632881
    116          1           0       10.221018    2.247923   -3.725643
    117          1           0        4.839223   -7.784108   -2.734592
    118          1           0        4.289934   -6.513605   -3.866183
    119          1           0        3.543978   -8.135783   -3.911986
    120          1           0      -10.465491   -3.860255   -3.463415
    121          1           0       -9.634981   -4.726219   -2.141073
    122          1           0       -9.097571   -4.947585   -3.831404
    123          1           0       -4.742339    7.867522   -2.735545
    124          1           0       -4.192946    6.588549   -3.858121
    125          1           0       -3.428959    8.202405   -3.897736
    126          1           0        3.029577    6.259927    2.466379
    127          8           0        3.940164    3.965352    1.304644
    128          1           0        1.665612    7.937399    1.286163
    129          1           0        1.047373    7.641880   -1.080859
    130          8           0        1.806603    5.493418   -2.578649
    131          8           0       -5.111556    0.844615    1.494399
    132          1           0       -7.499768    0.788018    2.782279
    133          1           0       -8.474088    2.716724    3.974123
    134          1           0       -7.228556    4.889899    4.071128
    135          8           0       -4.946993    5.373466    3.007140
    136          1           0       -2.976711   -6.190006    2.490286
    137          8           0       -3.947390   -3.902528    1.365473
    138          1           0       -1.602039   -7.831630    1.273982
    139          1           0       -1.025109   -7.503158   -1.099556
    140          8           0       -1.843520   -5.353081   -2.564040
    141          8           0        5.196667   -0.814272    1.358874
    142          1           0        7.524241   -0.761755    2.771386
    143          1           0        8.328570   -2.640301    4.151418
    144          1           0        7.017130   -4.718328    4.356471
    145          8           0        4.607281   -5.108340    3.143420
    146          6           0       -1.024314   -6.250245   -3.302507
    147          6           0        5.865691    0.436495    1.280219
    148          6           0        1.005851    6.421088   -3.300245
    149          6           0       -5.752908   -0.420719    1.423491
    150          1           0       -0.967048   -5.832062   -4.308976
    151          1           0       -1.470430   -7.252292   -3.352823
    152          1           0       -0.013605   -6.321096   -2.882693
    153          1           0       -6.715378   -0.356044    0.899839
    154          1           0       -5.915860   -0.839839    2.425687
    155          1           0       -5.081386   -1.071227    0.862001
    156          1           0        1.477714    7.411673   -3.340052
    157          1           0       -0.000534    6.511888   -2.874065
    158          1           0        0.932648    6.017852   -4.311799
    159          1           0        5.243724    1.075494    0.652450
    160          1           0        6.857964    0.335549    0.821431
    161          1           0        5.974057    0.891679    2.273755
    162          6           0        5.047023   -6.232785    3.885792
    163          1           0        4.259303   -6.981361    3.783514
    164          1           0        5.181551   -5.990247    4.948567
    165          1           0        5.986524   -6.637971    3.487581
    166          6           0       -4.311254   -4.063617    2.728057
    167          1           0       -4.898439   -3.180279    2.984098
    168          1           0       -3.428939   -4.112237    3.379010
    169          1           0       -4.922771   -4.962837    2.877470
    170          6           0        4.338247    4.109920    2.659371
    171          1           0        4.913722    3.213470    2.895989
    172          1           0        4.970483    4.996013    2.800452
    173          1           0        3.472389    4.170899    3.331148
    174          6           0       -3.789992    5.468945    3.836115
    175          1           0       -4.029242    5.195868    4.873230
    176          1           0       -3.478370    6.515349    3.800118
    177          1           0       -2.973276    4.836704    3.472778
 ---------------------------------------------------------------------

 SCF Done:  E(RB3LYP) =  -4406.60258628     A.U. after   15 cycles

 The electronic state is 1-A.
 Alpha  occ. eigenvalues --  -19.17319 -19.17243 -19.16827 -19.16793 -19.16738
 Alpha  occ. eigenvalues --  -19.16399 -19.16324 -19.16292 -19.16289 -19.15465
 Alpha  occ. eigenvalues --  -19.15401 -19.14576 -14.34409 -14.33886 -14.33678
 Alpha  occ. eigenvalues --  -14.33603 -10.24711 -10.24639 -10.24614 -10.24544
 Alpha  occ. eigenvalues --  -10.24351 -10.24261 -10.24182 -10.24178 -10.24117
 Alpha  occ. eigenvalues --  -10.23959 -10.23746 -10.23634 -10.23540 -10.23412
 Alpha  occ. eigenvalues --  -10.23249 -10.23173 -10.23133 -10.23129 -10.23092
 Alpha  occ. eigenvalues --  -10.22992 -10.22922 -10.22447 -10.22430 -10.22341
 Alpha  occ. eigenvalues --  -10.21458 -10.21414 -10.21205 -10.21155 -10.21150
 Alpha  occ. eigenvalues --  -10.21096 -10.21090 -10.21088 -10.21031 -10.21006
 Alpha  occ. eigenvalues --  -10.20988 -10.20854 -10.20164 -10.19253 -10.19181
 Alpha  occ. eigenvalues --  -10.18863 -10.18449 -10.18165 -10.18153 -10.18114
 Alpha  occ. eigenvalues --  -10.18081 -10.18058 -10.18050 -10.17980 -10.17977
 Alpha  occ. eigenvalues --  -10.17922 -10.17899 -10.17885 -10.17850 -10.17848
 Alpha  occ. eigenvalues --  -10.17835 -10.17828 -10.17785 -10.17769 -10.17759
 Alpha  occ. eigenvalues --  -10.17758 -10.17644 -10.17559 -10.17544 -10.17507
 Alpha  occ. eigenvalues --  -10.17494 -10.17479 -10.17478 -10.17472 -10.17415
 Alpha  occ. eigenvalues --  -10.17414 -10.17393 -10.17362 -10.17315 -10.17309
 Alpha  occ. eigenvalues --  -10.17281 -10.17248 -10.17207 -10.17153 -10.17111
 Alpha  occ. eigenvalues --  -10.17053 -10.17041 -10.17034 -10.17014 -10.16974
 Alpha  occ. eigenvalues --  -10.16927  -1.07002  -1.06933  -1.06666  -1.06563
 Alpha  occ. eigenvalues --   -1.06472  -1.06180  -1.06172  -1.05713  -1.05699
 Alpha  occ. eigenvalues --   -1.05039  -1.04970  -1.04374  -0.94881  -0.94678
 Alpha  occ. eigenvalues --   -0.94539  -0.94472  -0.88971  -0.86100  -0.84832
 Alpha  occ. eigenvalues --   -0.84714  -0.84643  -0.84459  -0.84015  -0.83829
 Alpha  occ. eigenvalues --   -0.83347  -0.83036  -0.82101  -0.82067  -0.79478
 Alpha  occ. eigenvalues --   -0.77393  -0.76260  -0.75928  -0.75755  -0.75640
 Alpha  occ. eigenvalues --   -0.75524  -0.75494  -0.75420  -0.75187  -0.74588
 Alpha  occ. eigenvalues --   -0.74500  -0.74134  -0.74071  -0.73627  -0.73503
 Alpha  occ. eigenvalues --   -0.73440  -0.73234  -0.73199  -0.72967  -0.72472
 Alpha  occ. eigenvalues --   -0.72316  -0.70442  -0.70420  -0.70363  -0.70114
 Alpha  occ. eigenvalues --   -0.70084  -0.69104  -0.68989  -0.68907  -0.68863
 Alpha  occ. eigenvalues --   -0.68393  -0.67668  -0.67536  -0.67246  -0.66463
 Alpha  occ. eigenvalues --   -0.66385  -0.63364  -0.62644  -0.62012  -0.61678
 Alpha  occ. eigenvalues --   -0.61484  -0.60684  -0.60289  -0.59769  -0.59685
 Alpha  occ. eigenvalues --   -0.59594  -0.59398  -0.58907  -0.58715  -0.58603
 Alpha  occ. eigenvalues --   -0.58554  -0.58332  -0.57902  -0.57601  -0.57526
 Alpha  occ. eigenvalues --   -0.57209  -0.56282  -0.55800  -0.55769  -0.55148
 Alpha  occ. eigenvalues --   -0.53926  -0.53826  -0.53572  -0.53027  -0.52705
 Alpha  occ. eigenvalues --   -0.52502  -0.52392  -0.52207  -0.51523  -0.51292
 Alpha  occ. eigenvalues --   -0.51064  -0.50647  -0.50572  -0.50520  -0.50447
 Alpha  occ. eigenvalues --   -0.50284  -0.49798  -0.49782  -0.49345  -0.49336
 Alpha  occ. eigenvalues --   -0.48760  -0.48681  -0.48628  -0.48437  -0.48133
 Alpha  occ. eigenvalues --   -0.47275  -0.47048  -0.46996  -0.46910  -0.46797
 Alpha  occ. eigenvalues --   -0.46677  -0.46527  -0.46486  -0.46352  -0.46286
 Alpha  occ. eigenvalues --   -0.46191  -0.46120  -0.46065  -0.46014  -0.45948
 Alpha  occ. eigenvalues --   -0.45900  -0.45585  -0.45531  -0.44981  -0.44840
 Alpha  occ. eigenvalues --   -0.44716  -0.44344  -0.44236  -0.44180  -0.44072
 Alpha  occ. eigenvalues --   -0.43834  -0.43672  -0.43586  -0.43532  -0.43435
 Alpha  occ. eigenvalues --   -0.43372  -0.43027  -0.42954  -0.42574  -0.42516
 Alpha  occ. eigenvalues --   -0.42463  -0.42203  -0.41621  -0.41490  -0.41421
 Alpha  occ. eigenvalues --   -0.41181  -0.41062  -0.40921  -0.40802  -0.40732
 Alpha  occ. eigenvalues --   -0.40715  -0.40680  -0.40593  -0.40153  -0.40093
 Alpha  occ. eigenvalues --   -0.40006  -0.39803  -0.39632  -0.39512  -0.39195
 Alpha  occ. eigenvalues --   -0.38939  -0.38733  -0.38361  -0.38332  -0.38244
 Alpha  occ. eigenvalues --   -0.38185  -0.38005  -0.37941  -0.37879  -0.37800
 Alpha  occ. eigenvalues --   -0.37713  -0.37441  -0.37325  -0.37139  -0.36948
 Alpha  occ. eigenvalues --   -0.36799  -0.36662  -0.36628  -0.36579  -0.35959
 Alpha  occ. eigenvalues --   -0.35867  -0.35570  -0.35399  -0.35262  -0.34909
 Alpha  occ. eigenvalues --   -0.34800  -0.34558  -0.34420  -0.34383  -0.34282
 Alpha  occ. eigenvalues --   -0.34196  -0.34042  -0.33974  -0.33739  -0.33622
 Alpha  occ. eigenvalues --   -0.33418  -0.33370  -0.33007  -0.32802  -0.32547
 Alpha  occ. eigenvalues --   -0.32418  -0.32385  -0.32214  -0.32086  -0.32025
 Alpha  occ. eigenvalues --   -0.31944  -0.31832  -0.31579  -0.31352  -0.31270
 Alpha  occ. eigenvalues --   -0.31164  -0.31089  -0.30781  -0.30382  -0.30304
 Alpha  occ. eigenvalues --   -0.30091  -0.29195  -0.28008  -0.27689  -0.26469
 Alpha  occ. eigenvalues --   -0.26194  -0.25492  -0.25223  -0.25136  -0.24314
 Alpha  occ. eigenvalues --   -0.24272  -0.24073  -0.23889  -0.23597  -0.23458
 Alpha  occ. eigenvalues --   -0.23381  -0.23076  -0.22457  -0.22421  -0.22327
 Alpha  occ. eigenvalues --   -0.21837  -0.21763  -0.21633  -0.21576  -0.21146
 Alpha  occ. eigenvalues --   -0.20497  -0.17543  -0.17114  -0.16328  -0.15970
 Alpha virt. eigenvalues --   -0.02781  -0.02484  -0.01149  -0.01084  -0.00796
 Alpha virt. eigenvalues --   -0.00482  -0.00304  -0.00182  -0.00094   0.00156
 Alpha virt. eigenvalues --    0.00795   0.00834   0.01465   0.01647   0.01781

 Mulliken atomic charges:
              1
     1  C   -0.300739
     2  C    0.101544
     3  C    0.049201
     4  C    0.048381
     5  C    0.104553
     6  C    0.097681
     7  C    0.042817
     8  C    0.042583
     9  C    0.096945
    10  C    0.037038
    11  C    0.099331
    12  C    0.067586
    13  C   -0.020004
    14  C   -0.012973
    15  C    0.102640
    16  C    0.047267
    17  C    0.048525
    18  C    0.049865
    19  C    0.042366
    20  C    0.106363
    21  C   -0.013271
    22  C   -0.020473
    23  C    0.058451
    24  C    0.103129
    25  C    0.037423
    26  N   -0.275791
    27  N   -0.285716
    28  N   -0.285950
    29  N   -0.282172
    30  C    0.040695
    31  C   -0.013115
    32  C    0.088313
    33  C    0.133485
    34  C    0.095190
    35  C    0.001660
    36  C    0.129394
    37  C   -0.012228
    38  C    0.016370
    39  C   -0.010833
    40  C    0.111392
    41  C    0.038407
    42  C    0.013645
    43  C    0.030751
    44  C   -0.003046
    45  C    0.108858
    46  C    0.055942
    47  C    0.042541
    48  C    0.142000
    49  C   -0.018458
    50  C    0.051428
    51  C   -0.016648
    52  C    0.141765
    53  C    0.167446
    54  C   -0.020659
    55  C    0.056042
    56  C   -0.028633
    57  C    0.157671
    58  C    0.158527
    59  C   -0.028863
    60  C    0.055725
    61  C   -0.020121
    62  C    0.166966
    63  C   -0.004327
    64  C   -0.011481
    65  C    0.110709
    66  C    0.038834
    67  C    0.029628
    68  C    0.033109
    69  C    0.060654
    70  C    0.111317
    71  C    0.000852
    72  C    0.036950
    73  C    0.128125
    74  C   -0.012138
    75  C    0.057662
    76  C    0.050318
    77  C    0.069271
    78  H   -0.043306
    79  H   -0.056437
    80  H   -0.045898
    81  H   -0.057096
    82  H   -0.057064
    83  H   -0.044612
    84  H   -0.061753
    85  H   -0.049191
    86  H   -0.062264
    87  H   -0.044945
    88  H   -0.054911
    89  H   -0.045583
    90  O   -0.293357
    91  C    0.131515
    92  O   -0.288564
    93  C    0.134784
    94  O   -0.288102
    95  O   -0.293220
    96  C    0.132801
    97  C    0.134867
    98  H   -0.037113
    99  H   -0.017912
   100  H   -0.037788
   101  H   -0.040814
   102  H   -0.043274
   103  H   -0.033931
   104  H   -0.035554
   105  H   -0.028675
   106  H   -0.032951
   107  H   -0.037754
   108  H   -0.033782
   109  H   -0.028150
   110  H   -0.040807
   111  H   -0.019004
   112  H   -0.039559
   113  H   -0.031554
   114  H    0.020766
   115  H    0.017968
   116  H    0.027215
   117  H    0.022670
   118  H    0.023836
   119  H    0.027330
   120  H    0.027629
   121  H    0.018824
   122  H    0.020323
   123  H    0.025956
   124  H    0.024809
   125  H    0.027761
   126  H   -0.038992
   127  O   -0.277932
   128  H   -0.034114
   129  H   -0.027456
   130  O   -0.272872
   131  O   -0.275977
   132  H   -0.038092
   133  H   -0.037472
   134  H   -0.045758
   135  O   -0.297087
   136  H   -0.038915
   137  O   -0.277388
   138  H   -0.034593
   139  H   -0.027234
   140  O   -0.272961
   141  O   -0.274033
   142  H   -0.039790
   143  H   -0.038624
   144  H   -0.041688
   145  O   -0.273562
   146  C    0.122390
   147  C    0.111451
   148  C    0.121071
   149  C    0.109775
   150  H    0.033725
   151  H    0.023976
   152  H    0.041285
   153  H    0.028747
   154  H    0.024090
   155  H    0.062161
   156  H    0.024406
   157  H    0.041240
   158  H    0.033177
   159  H    0.061888
   160  H    0.024272
   161  H    0.025417
   162  C    0.133474
   163  H    0.035867
   164  H    0.023463
   165  H    0.026201
   166  C    0.126972
   167  H    0.032430
   168  H    0.032115
   169  H    0.028291
   170  C    0.126674
   171  H    0.033410
   172  H    0.028897
   173  H    0.031133
   174  C    0.131593
   175  H    0.007934
   176  H    0.028748
   177  H    0.036444
 Sum of Mulliken atomic charges =   0.00000

 Dipole moment (field-independent basis, Debye):
    X=              1.2692    Y=             -3.6873    Z=              1.7067  Tot=              4.2568
 Quadrupole moment (field-independent basis, Debye-Ang):
   XX=           -544.5617   YY=           -519.9614   ZZ=           -534.0942
   XY=             -8.0353   XZ=              6.1446   YZ=             -2.2255

 Normal termination of Gaussian 09 at Tue Feb  3 00:53:01 2015.
