 Gaussian 09, Revision A.02,
 Gaussian 09:  EM64L-G09RevA.02 11-Jun-2009

 -------------------
 #p sp B3LYP/cc-pVDZ
 -------------------

 ------------------------------------------
 Auto Spiro; and yes I said yes I will Yes.
 ------------------------------------------
 Symbolic Z-matrix:
 Charge =  0 Multiplicity = 1

                         Standard orientation:
 ---------------------------------------------------------------------
 Center     Atomic      Atomic             Coordinates (Angstroms)
 Number     Number       Type             X           Y           Z
 ---------------------------------------------------------------------
      1          6           0       -0.062812   -0.045654    0.293071
      2          6           0       -0.871139   -0.911931   -0.680626
      3          6           0       -0.557952   -0.584575   -2.012705
      4          6           0        0.465023    0.465280   -2.011271
      5          6           0        0.746724    0.819596   -0.677833
      6          6           0       -0.949237    0.726992    1.277296
      7          6           0       -0.650342    0.358602    2.605755
      8          6           0        0.453962   -0.602872    2.590736
      9          6           0        0.813509   -0.862366    1.253160
     10          6           0       -1.957273    1.631840    0.992963
     11          6           0       -2.696110    2.193375    2.051195
     12          6           0       -2.407169    1.819806    3.373820
     13          6           0       -1.392483    0.904361    3.654489
     14          6           0        1.150577    1.088079   -3.058743
     15          6           0        2.107010    2.056551   -2.764696
     16          6           0        2.387585    2.412185   -1.434762
     17          6           0        1.693543    1.791961   -0.383528
     18          6           0       -1.819085   -1.878995   -0.380956
     19          6           0       -2.478064   -2.539606   -1.431000
     20          6           0       -2.169161   -2.209945   -2.763643
     21          6           0       -1.216557   -1.237925   -3.058086
     22          6           0        1.152130   -1.233848    3.621674
     23          6           0        2.184094   -2.117019    3.311355
     24          6           0        2.543490   -2.376439    1.975058
     25          6           0        1.843827   -1.731400    0.936327
     26          7           0       -3.725996    3.133028    1.770568
     27          7           0        3.400318    3.380876   -1.153960
     28          7           0       -3.465152   -3.531863   -1.158792
     29          7           0        3.606480   -3.266812    1.690515
     30          6           0        4.732602   -3.300942    2.561979
     31          6           0       -3.273630   -4.421303   -0.066004
     32          6           0        3.553890   -4.169387    0.594835
     33          6           0       -4.751798   -3.434922   -1.759574
     34          6           0       -3.446883    4.239082    0.923033
     35          6           0       -4.927578    3.115322    2.526683
     36          6           0        4.747216    3.129569   -1.500709
     37          6           0        3.051912    4.555738   -0.429788
     38          6           0        5.652512    4.182146   -1.699954
     39          6           0        6.988984    3.939534   -2.025002
     40          6           0        7.448965    2.628449   -2.178829
     41          6           0        6.550783    1.569860   -1.993149
     42          6           0        5.226284    1.812087   -1.651153
     43          6           0       -4.412869    4.724633    0.033738
     44          6           0       -4.142794    5.808250   -0.805744
     45          6           0       -2.881810    6.412701   -0.778767
     46          6           0       -1.911784    5.937706    0.113036
     47          6           0       -2.192052    4.872448    0.955756
     48          6           0       -5.362180    4.248410    3.221989
     49          6           0       -6.552821    4.241293    3.950547
     50          6           0       -7.315419    3.077869    4.007656
     51          6           0       -6.901712    1.930551    3.323631
     52          6           0       -5.724342    1.942228    2.569882
     53          6           0        3.574065    4.796075    0.844251
     54          6           0        3.260227    5.957814    1.551113
     55          6           0        2.401816    6.893750    0.978442
     56          6           0        1.867430    6.679625   -0.295335
     57          6           0        2.190103    5.519030   -1.009974
     58          6           0       -2.113200   -5.224172    0.014530
     59          6           0       -1.914148   -6.062347    1.112330
     60          6           0       -2.868220   -6.147767    2.126029
     61          6           0       -4.034373   -5.385575    2.038727
     62          6           0       -4.226525   -4.525764    0.959259
     63          6           0       -5.329554   -2.196014   -2.061777
     64          6           0       -6.585074   -2.113015   -2.670928
     65          6           0       -7.298670   -3.278238   -2.966866
     66          6           0       -6.733176   -4.523425   -2.654143
     67          6           0       -5.477417   -4.600522   -2.070128
     68          6           0        2.342360   -4.764041    0.196133
     69          6           0        2.305629   -5.657884   -0.864024
     70          6           0        3.478458   -6.004888   -1.547892
     71          6           0        4.690339   -5.428065   -1.156656
     72          6           0        4.718678   -4.510721   -0.103342
     73          6           0        5.554835   -2.155778    2.705493
     74          6           0        6.651117   -2.196007    3.574234
     75          6           0        6.952671   -3.368507    4.273072
     76          6           0        6.165004   -4.506660    4.116713
     77          6           0        5.056685   -4.461372    3.269015
     78          1           0        2.124793   -1.912242   -0.096137
     79          1           0       -2.062322   -2.120670    0.649138
     80          1           0       -2.687569   -2.723849   -3.567331
     81          1           0       -0.989215   -1.001515   -4.094555
     82          1           0        0.943378    0.825919   -4.093304
     83          1           0        2.648262    2.557722   -3.560629
     84          1           0        0.893577   -1.053189    4.662258
     85          1           0        2.721357   -2.620894    4.108316
     86          1           0       -1.181461    0.633069    4.685994
     87          1           0       -2.981588    2.259375    4.183558
     88          1           0        1.923053    2.058895    0.644061
     89          1           0       -2.195350    1.904905   -0.030483
     90          8           0        3.331374   -6.905730   -2.571499
     91          6           0        4.489093   -7.281364   -3.294239
     92          8           0       -8.534679   -3.314281   -3.552823
     93          6           0       -9.147613   -2.081707   -3.888772
     94          8           0        8.735962    2.277473   -2.501205
     95          8           0       -2.493815    7.459454   -1.579200
     96          6           0       -3.444410    7.987115   -2.488250
     97          6           0        9.671334    3.318351   -2.711214
     98          1           0        6.913309    0.553056   -2.111295
     99          1           0        4.553095    0.974548   -1.502828
    100          1           0       -5.387424    4.247756   -0.004954
    101          1           0       -4.915308    6.152454   -1.484301
    102          1           0        7.652693    4.785312   -2.167050
    103          1           0        5.311459    5.207026   -1.598887
    104          1           0       -0.941312    6.421577    0.144835
    105          1           0       -1.431298    4.518807    1.643702
    106          1           0        5.663484   -4.059214    0.181671
    107          1           0        5.616547   -5.667728   -1.667050
    108          1           0        1.364001   -6.104321   -1.163667
    109          1           0        1.420049   -4.518636    0.711299
    110          1           0       -6.994066   -1.134045   -2.894406
    111          1           0       -4.790991   -1.283109   -1.829411
    112          1           0       -7.292911   -5.422555   -2.892880
    113          1           0       -5.049206   -5.571906   -1.842924
    114          1           0       -8.546652   -1.513970   -4.612190
    115          1           0       -9.319792   -1.459041   -3.000218
    116          1           0      -10.108224   -2.336578   -4.340615
    117          1           0       -4.328708    8.377642   -1.966757
    118          1           0       -3.765456    7.235335   -3.222197
    119          1           0       -2.943262    8.806159   -3.008213
    120          1           0       10.617785    2.830271   -2.953384
    121          1           0        9.803596    3.935071   -1.811062
    122          1           0        9.376501    3.968390   -3.546862
    123          1           0        5.234533   -7.763548   -2.646542
    124          1           0        4.954944   -6.420078   -3.792863
    125          1           0        4.155305   -7.995752   -4.049840
    126          1           0       -4.787432   -5.443057    2.819837
    127          1           0       -5.124748   -3.918851    0.896402
    128          1           0       -2.704218   -6.810070    2.971249
    129          1           0       -1.002029   -6.651030    1.143522
    130          8           0       -1.128044   -5.166092   -0.946187
    131          8           0        5.208793   -1.076679    1.953150
    132          1           0        7.283168   -1.323734    3.696491
    133          1           0        7.812719   -3.383532    4.937211
    134          1           0        6.398872   -5.419052    4.657508
    135          1           0        4.423106   -5.333928    3.138683
    136          1           0        3.675637    6.122023    2.541046
    137          1           0        4.242990    4.053863    1.270443
    138          1           0        2.144037    7.802735    1.515266
    139          1           0        1.218089    7.428391   -0.735010
    140          8           0        1.744848    5.243656   -2.265205
    141          8           0       -5.269765    0.886080    1.839684
    142          1           0       -7.512302    1.035670    3.365441
    143          1           0       -8.238906    3.051979    4.579651
    144          1           0       -6.868129    5.135311    4.480757
    145          1           0       -4.749618    5.143993    3.179081
    146          6           0        0.906295    6.190265   -2.913999
    147          6           0       -6.003061   -0.326988    1.870621
    148          6           0       -1.459261   -5.778287   -2.195407
    149          6           0        6.013606    0.090378    2.026204
    150          1           0        0.690925    5.764918   -3.895918
    151          1           0        1.416317    7.154725   -3.041293
    152          1           0       -0.034302    6.346659   -2.372905
    153          1           0        7.054150   -0.120141    1.746341
    154          1           0        5.991415    0.531691    3.031473
    155          1           0        5.586771    0.791810    1.307684
    156          1           0       -0.578203   -5.666509   -2.830452
    157          1           0       -2.315801   -5.287275   -2.669343
    158          1           0       -1.679740   -6.845421   -2.058389
    159          1           0       -5.460479   -1.018116    1.223232
    160          1           0       -7.022371   -0.193591    1.483805
    161          1           0       -6.054144   -0.741607    2.886001
 ---------------------------------------------------------------------

 SCF Done:  E(RB3LYP) =  -3948.50193808     A.U. after   15 cycles

 The electronic state is 1-A.
 Alpha  occ. eigenvalues --  -19.17038 -19.16961 -19.16792 -19.16738 -19.16517
 Alpha  occ. eigenvalues --  -19.15908 -19.15821 -19.15334 -14.35437 -14.34520
 Alpha  occ. eigenvalues --  -14.34284 -14.34033 -10.24439 -10.24319 -10.24319
 Alpha  occ. eigenvalues --  -10.24290 -10.24282 -10.24195 -10.23922 -10.23767
 Alpha  occ. eigenvalues --  -10.23697 -10.23536 -10.23502 -10.23357 -10.23298
 Alpha  occ. eigenvalues --  -10.22998 -10.22915 -10.22821 -10.22507 -10.22304
 Alpha  occ. eigenvalues --  -10.22172 -10.21866 -10.21727 -10.21596 -10.21510
 Alpha  occ. eigenvalues --  -10.21509 -10.21494 -10.21486 -10.21477 -10.21010
 Alpha  occ. eigenvalues --  -10.20431 -10.18915 -10.18905 -10.18817 -10.18810
 Alpha  occ. eigenvalues --  -10.18802 -10.18701 -10.18654 -10.18650 -10.18625
 Alpha  occ. eigenvalues --  -10.18556 -10.18551 -10.18547 -10.18512 -10.18503
 Alpha  occ. eigenvalues --  -10.18498 -10.18490 -10.18470 -10.18407 -10.18371
 Alpha  occ. eigenvalues --  -10.18319 -10.18299 -10.18294 -10.18287 -10.18256
 Alpha  occ. eigenvalues --  -10.18223 -10.18185 -10.18164 -10.18139 -10.18127
 Alpha  occ. eigenvalues --  -10.18077 -10.17958 -10.17925 -10.17904 -10.17897
 Alpha  occ. eigenvalues --  -10.17894 -10.17868 -10.17868 -10.17832 -10.17781
 Alpha  occ. eigenvalues --  -10.17745 -10.17621 -10.17600 -10.17597 -10.17549
 Alpha  occ. eigenvalues --  -10.17533 -10.17506 -10.17490 -10.17444 -10.17254
 Alpha  occ. eigenvalues --  -10.17235 -10.17147 -10.16991  -1.06596  -1.06571
 Alpha  occ. eigenvalues --   -1.06554  -1.06441  -1.06337  -1.05497  -1.05400
 Alpha  occ. eigenvalues --   -1.04967  -0.95970  -0.95345  -0.95028  -0.94963
 Alpha  occ. eigenvalues --   -0.89279  -0.86378  -0.85403  -0.85034  -0.84940
 Alpha  occ. eigenvalues --   -0.84683  -0.84672  -0.84287  -0.83797  -0.83480
 Alpha  occ. eigenvalues --   -0.82584  -0.82186  -0.79759  -0.77633  -0.76411
 Alpha  occ. eigenvalues --   -0.76151  -0.76028  -0.75714  -0.75542  -0.75119
 Alpha  occ. eigenvalues --   -0.74950  -0.74792  -0.74712  -0.74670  -0.74524
 Alpha  occ. eigenvalues --   -0.74474  -0.74189  -0.73897  -0.73820  -0.73611
 Alpha  occ. eigenvalues --   -0.73291  -0.73195  -0.72480  -0.72340  -0.70579
 Alpha  occ. eigenvalues --   -0.70532  -0.69511  -0.69334  -0.69198  -0.69079
 Alpha  occ. eigenvalues --   -0.68473  -0.68149  -0.67624  -0.67150  -0.66870
 Alpha  occ. eigenvalues --   -0.63725  -0.62757  -0.62358  -0.61969  -0.61865
 Alpha  occ. eigenvalues --   -0.61753  -0.61246  -0.60552  -0.60419  -0.59989
 Alpha  occ. eigenvalues --   -0.59712  -0.59511  -0.59251  -0.59039  -0.58944
 Alpha  occ. eigenvalues --   -0.58868  -0.58388  -0.57934  -0.57769  -0.57565
 Alpha  occ. eigenvalues --   -0.56496  -0.56129  -0.55805  -0.55295  -0.53755
 Alpha  occ. eigenvalues --   -0.53609  -0.53377  -0.53063  -0.52988  -0.52928
 Alpha  occ. eigenvalues --   -0.52527  -0.52282  -0.51788  -0.51263  -0.51206
 Alpha  occ. eigenvalues --   -0.50549  -0.50362  -0.50226  -0.49957  -0.49655
 Alpha  occ. eigenvalues --   -0.49004  -0.48861  -0.48668  -0.48450  -0.48161
 Alpha  occ. eigenvalues --   -0.48124  -0.47454  -0.47090  -0.46948  -0.46896
 Alpha  occ. eigenvalues --   -0.46861  -0.46606  -0.46428  -0.46375  -0.46262
 Alpha  occ. eigenvalues --   -0.46191  -0.46121  -0.45964  -0.45830  -0.45607
 Alpha  occ. eigenvalues --   -0.45435  -0.45233  -0.45019  -0.44774  -0.44688
 Alpha  occ. eigenvalues --   -0.44347  -0.43913  -0.43755  -0.43637  -0.43516
 Alpha  occ. eigenvalues --   -0.43468  -0.43221  -0.43173  -0.43011  -0.42910
 Alpha  occ. eigenvalues --   -0.42820  -0.42624  -0.42523  -0.42442  -0.42285
 Alpha  occ. eigenvalues --   -0.42165  -0.41884  -0.41649  -0.41571  -0.41451
 Alpha  occ. eigenvalues --   -0.41386  -0.41294  -0.41199  -0.41030  -0.40860
 Alpha  occ. eigenvalues --   -0.40577  -0.40320  -0.40035  -0.39759  -0.39195
 Alpha  occ. eigenvalues --   -0.39086  -0.38839  -0.38483  -0.38241  -0.38169
 Alpha  occ. eigenvalues --   -0.37961  -0.37716  -0.37605  -0.37560  -0.37372
 Alpha  occ. eigenvalues --   -0.37336  -0.37262  -0.37212  -0.37138  -0.36951
 Alpha  occ. eigenvalues --   -0.36638  -0.36550  -0.36286  -0.36115  -0.35917
 Alpha  occ. eigenvalues --   -0.35886  -0.35818  -0.35685  -0.35610  -0.35486
 Alpha  occ. eigenvalues --   -0.35379  -0.35029  -0.34802  -0.34674  -0.34509
 Alpha  occ. eigenvalues --   -0.33922  -0.33707  -0.33303  -0.33145  -0.33025
 Alpha  occ. eigenvalues --   -0.32767  -0.32716  -0.32617  -0.32492  -0.32402
 Alpha  occ. eigenvalues --   -0.32248  -0.32200  -0.32067  -0.31805  -0.31770
 Alpha  occ. eigenvalues --   -0.31676  -0.31633  -0.31463  -0.31343  -0.29586
 Alpha  occ. eigenvalues --   -0.29237  -0.28278  -0.27874  -0.27186  -0.26480
 Alpha  occ. eigenvalues --   -0.26012  -0.25862  -0.25626  -0.25091  -0.24873
 Alpha  occ. eigenvalues --   -0.24657  -0.24571  -0.24383  -0.24187  -0.23994
 Alpha  occ. eigenvalues --   -0.23942  -0.23704  -0.23447  -0.23069  -0.22127
 Alpha  occ. eigenvalues --   -0.21984  -0.21852  -0.21773  -0.21033  -0.18077
 Alpha  occ. eigenvalues --   -0.17751  -0.16800  -0.16033
 Alpha virt. eigenvalues --   -0.03202  -0.02643  -0.02129  -0.01496  -0.01356
 Alpha virt. eigenvalues --   -0.01112  -0.00825  -0.00460  -0.00438  -0.00259
 Alpha virt. eigenvalues --   -0.00042   0.00295   0.00480   0.00917   0.01109

 Mulliken atomic charges:
              1
     1  C   -0.301869
     2  C    0.104360
     3  C    0.042800
     4  C    0.046965
     5  C    0.096139
     6  C    0.095924
     7  C    0.046225
     8  C    0.042811
     9  C    0.095569
    10  C    0.035337
    11  C    0.096599
    12  C    0.059210
    13  C   -0.016247
    14  C   -0.012980
    15  C    0.106908
    16  C    0.055654
    17  C    0.046281
    18  C    0.032832
    19  C    0.086633
    20  C    0.070802
    21  C   -0.008787
    22  C   -0.016556
    23  C    0.058084
    24  C    0.117682
    25  C    0.022150
    26  N   -0.274597
    27  N   -0.290031
    28  N   -0.282720
    29  N   -0.276570
    30  C   -0.018893
    31  C    0.042354
    32  C    0.072483
    33  C    0.049081
    34  C    0.050145
    35  C    0.017629
    36  C    0.092891
    37  C    0.004921
    38  C    0.028182
    39  C   -0.008018
    40  C    0.113824
    41  C    0.039359
    42  C    0.020935
    43  C    0.049205
    44  C    0.001181
    45  C    0.115686
    46  C    0.055940
    47  C    0.038355
    48  C    0.050287
    49  C    0.049078
    50  C    0.041751
    51  C   -0.009728
    52  C    0.131349
    53  C    0.079245
    54  C    0.048610
    55  C    0.044845
    56  C   -0.024145
    57  C    0.134622
    58  C    0.067071
    59  C    0.061320
    60  C    0.049140
    61  C    0.054699
    62  C    0.038240
    63  C    0.022178
    64  C   -0.007526
    65  C    0.118830
    66  C    0.048237
    67  C    0.050748
    68  C    0.027778
    69  C    0.049400
    70  C    0.116274
    71  C   -0.006384
    72  C    0.035152
    73  C    0.142258
    74  C   -0.012038
    75  C    0.044498
    76  C    0.048680
    77  C    0.073380
    78  H   -0.037718
    79  H   -0.042470
    80  H   -0.039767
    81  H   -0.055845
    82  H   -0.056328
    83  H   -0.047228
    84  H   -0.059245
    85  H   -0.038267
    86  H   -0.057645
    87  H   -0.040926
    88  H   -0.055880
    89  H   -0.048432
    90  O   -0.285428
    91  C    0.132841
    92  O   -0.282470
    93  C    0.131168
    94  O   -0.286607
    95  O   -0.294142
    96  C    0.130334
    97  C    0.133282
    98  H   -0.033447
    99  H   -0.016451
   100  H   -0.036009
   101  H   -0.037160
   102  H   -0.039872
   103  H   -0.031617
   104  H   -0.031498
   105  H   -0.026525
   106  H   -0.033293
   107  H   -0.039443
   108  H   -0.034025
   109  H   -0.019883
   110  H   -0.034017
   111  H   -0.017972
   112  H   -0.030901
   113  H   -0.033246
   114  H    0.025346
   115  H    0.023948
   116  H    0.033027
   117  H    0.026490
   118  H    0.024876
   119  H    0.030263
   120  H    0.029274
   121  H    0.020730
   122  H    0.021941
   123  H    0.022241
   124  H    0.023167
   125  H    0.028453
   126  H   -0.036401
   127  H   -0.031153
   128  H   -0.034237
   129  H   -0.030164
   130  O   -0.302374
   131  O   -0.271670
   132  H   -0.034460
   133  H   -0.037768
   134  H   -0.038170
   135  H   -0.041458
   136  H   -0.037597
   137  H   -0.043908
   138  H   -0.035526
   139  H   -0.021417
   140  O   -0.273457
   141  O   -0.273793
   142  H   -0.035993
   143  H   -0.039329
   144  H   -0.039083
   145  H   -0.036927
   146  C    0.118903
   147  C    0.120118
   148  C    0.127732
   149  C    0.119906
   150  H    0.032061
   151  H    0.021674
   152  H    0.043231
   153  H    0.026202
   154  H    0.024265
   155  H    0.050014
   156  H    0.041919
   157  H    0.034773
   158  H    0.011723
   159  H    0.047610
   160  H    0.022688
   161  H    0.026728
 Sum of Mulliken atomic charges =   0.00000

 Dipole moment (field-independent basis, Debye):
    X=             -1.7870    Y=              2.6760    Z=             -2.3565  Tot=              3.9884
 Quadrupole moment (field-independent basis, Debye-Ang):
   XX=           -471.2852   YY=           -494.5570   ZZ=           -506.8485
   XY=             -3.4739   XZ=              8.8908   YZ=            -12.3465

 Normal termination of Gaussian 09 at Tue Feb  3 01:19:21 2015.
