 Gaussian 09, Revision A.02,
 Gaussian 09:  EM64L-G09RevA.02 11-Jun-2009

 -------------------
 #p sp B3LYP/cc-pVDZ
 -------------------

 ------------------------------------------
 Auto Spiro; and yes I said yes I will Yes.
 ------------------------------------------
 Symbolic Z-matrix:
 Charge =  0 Multiplicity = 1

                         Standard orientation:
 ---------------------------------------------------------------------
 Center     Atomic      Atomic             Coordinates (Angstroms)
 Number     Number       Type             X           Y           Z
 ---------------------------------------------------------------------
      1          6           0       -0.017675    0.118327    0.407437
      2          6           0       -0.648023    1.109399    1.393546
      3          6           0       -0.540105    0.628247    2.713948
      4          6           0        0.262268   -0.598449    2.698935
      5          6           0        0.598611   -0.905043    1.365060
      6          6           0       -1.106362   -0.485747   -0.496783
      7          6           0       -0.838143   -0.201491   -1.847968
      8          6           0        0.431314    0.522709   -1.932050
      9          6           0        0.935922    0.717889   -0.629665
     10          6           0       -2.245677   -1.176944   -0.116466
     11          6           0       -3.150125   -1.605554   -1.105014
     12          6           0       -2.885607   -1.317900   -2.457400
     13          6           0       -1.741004   -0.617299   -2.830907
     14          6           0        0.711317   -1.426516    3.729518
     15          6           0        1.483510   -2.544765    3.423512
     16          6           0        1.830228   -2.845637    2.092098
     17          6           0        1.375999   -2.008534    1.053903
     18          6           0       -1.344169    2.274367    1.113060
     19          6           0       -1.991032    2.952734    2.159192
     20          6           0       -1.911228    2.458957    3.469840
     21          6           0       -1.176866    1.306723    3.756445
     22          6           0        1.159529    0.981757   -3.032172
     23          6           0        2.381478    1.615439   -2.827033
     24          6           0        2.902058    1.788571   -1.529885
     25          6           0        2.157100    1.342315   -0.420075
     26          7           0       -4.313001   -2.337159   -0.740616
     27          7           0        2.643092   -3.971935    1.804756
     28          7           0       -2.759163    4.130941    1.881936
     29          7           0        4.173013    2.393583   -1.350416
     30          6           0        5.257477    2.047424   -2.199941
     31          6           0       -2.061197    5.270736    1.403448
     32          6           0        4.357610    3.372289   -0.330826
     33          6           0       -4.169089    4.004363    1.743708
     34          6           0       -4.207392   -3.375937    0.229742
     35          6           0       -5.579511   -1.990151   -1.273165
     36          6           0        3.725486   -4.300893    2.671030
     37          6           0        2.386995   -4.780235    0.665552
     38          6           0        3.912396   -5.611954    3.121555
     39          6           0        4.983421   -5.943911    3.954712
     40          6           0        5.876826   -4.950591    4.371036
     41          6           0        5.689678   -3.631015    3.932721
     42          6           0        4.636295   -3.313578    3.087097
     43          6           0       -5.117418   -3.470298    1.288477
     44          6           0       -5.024301   -4.496615    2.231936
     45          6           0       -3.991701   -5.436074    2.140528
     46          6           0       -3.066300   -5.338694    1.090889
     47          6           0       -3.178245   -4.330550    0.143339
     48          6           0       -6.504558   -3.001412   -1.592024
     49          6           0       -7.762759   -2.667382   -2.087874
     50          6           0       -8.119042   -1.318737   -2.321982
     51          6           0       -7.179857   -0.321417   -2.015664
     52          6           0       -5.927270   -0.654407   -1.485662
     53          6           0        3.461849   -5.268410   -0.099006
     54          6           0        3.211807   -6.061663   -1.215725
     55          6           0        1.890281   -6.392348   -1.601088
     56          6           0        0.828207   -5.894155   -0.828831
     57          6           0        1.081315   -5.102320    0.300264
     58          6           0       -0.875951    5.646971    2.051623
     59          6           0       -0.143645    6.740989    1.584942
     60          6           0       -0.584068    7.474705    0.470949
     61          6           0       -1.790637    7.108970   -0.150310
     62          6           0       -2.522177    6.004145    0.300442
     63          6           0       -4.756961    2.807577    1.317300
     64          6           0       -6.143445    2.681011    1.196906
     65          6           0       -6.972753    3.767551    1.486671
     66          6           0       -6.393670    4.969907    1.921895
     67          6           0       -5.017569    5.083098    2.059394
     68          6           0        3.462045    4.446929   -0.195270
     69          6           0        3.653815    5.415441    0.781550
     70          6           0        4.757820    5.336824    1.643884
     71          6           0        5.658396    4.273198    1.518303
     72          6           0        5.447652    3.296774    0.542561
     73          6           0        5.429384    0.715952   -2.606537
     74          6           0        6.491471    0.379134   -3.451453
     75          6           0        7.402526    1.358161   -3.883071
     76          6           0        7.235462    2.683506   -3.446127
     77          6           0        6.159648    3.033764   -2.623466
     78          1           0        2.555507    1.471656    0.581647
     79          1           0       -1.423894    2.654440    0.098527
     80          1           0       -2.429818    2.994227    4.259804
     81          1           0       -1.112829    0.943252    4.778954
     82          1           0        0.458508   -1.214923    4.765444
     83          1           0        1.828522   -3.198258    4.218040
     84          1           0        0.781390    0.853808   -4.043305
     85          1           0        2.954877    1.977096   -3.674279
     86          1           0       -1.553072   -0.413528   -3.882064
     87          1           0       -3.586321   -1.657779   -3.213442
     88          1           0        1.640450   -2.230281    0.025053
     89          1           0       -2.450087   -1.388352    0.928528
     90          8           0        4.868490    6.341841    2.569599
     91          6           0        5.984474    6.324035    3.442833
     92          8           0       -8.336279    3.760734    1.381088
     93          6           0       -8.959762    2.558747    0.950363
     94          8           0        6.950650   -5.158762    5.191189
     95          8           0       -3.801469   -6.474964    3.010844
     96          6           0       -4.695495   -6.601093    4.102571
     97          6           0        7.176838   -6.471801    5.674987
     98          1           0        6.394022   -2.871468    4.257642
     99          1           0        4.507288   -2.291860    2.743585
    100          1           0       -5.911838   -2.735672    1.376824
    101          1           0       -5.750173   -4.537251    3.036330
    102          1           0        5.097313   -6.971313    4.281586
    103          1           0        3.213784   -6.383834    2.813735
    104          1           0       -2.265920   -6.068004    1.020981
    105          1           0       -2.455462   -4.282552   -0.664713
    106          1           0        6.146044    2.470471    0.451503
    107          1           0        6.516457    4.183444    2.174965
    108          1           0        2.965049    6.248908    0.880066
    109          1           0        2.612326    4.522875   -0.866776
    110          1           0       -6.553718    1.739917    0.849852
    111          1           0       -4.130055    1.956903    1.072122
    112          1           0       -7.046977    5.803788    2.161022
    113          1           0       -4.585832    6.015654    2.409104
    114          1           0       -8.786147    1.740245    1.662634
    115          1           0       -8.607610    2.247669   -0.041024
    116          1           0      -10.029163    2.775949    0.908559
    117          1           0       -5.729030   -6.759651    3.765037
    118          1           0       -4.664783   -5.719015    4.756511
    119          1           0       -4.363206   -7.476449    4.664241
    120          1           0        8.067895   -6.411297    6.302717
    121          1           0        7.359197   -7.179948    4.855196
    122          1           0        6.332656   -6.831924    6.278328
    123          1           0        6.931945    6.374821    2.889522
    124          1           0        5.989328    5.428055    4.078583
    125          1           0        5.888348    7.210863    4.072344
    126          8           0       -2.158669    7.890764   -1.207626
    127          1           0       -3.434041    5.699367   -0.195198
    128          8           0        1.016925    7.183284    2.156421
    129          1           0       -0.546450    5.082534    2.913345
    130          1           0        4.737781   -0.037280   -2.253507
    131          8           0        6.741636   -0.886917   -3.897876
    132          8           0        8.172307    3.567090   -3.898557
    133          1           0        6.008119    4.057752   -2.309528
    134          8           0        4.192675   -6.541371   -2.040005
    135          1           0        4.472176   -5.001623    0.180771
    136          8           0       -0.500126   -6.080034   -1.101422
    137          1           0        0.235630   -4.750237    0.879073
    138          1           0       -5.241233    0.150228   -1.248571
    139          8           0       -7.444241    1.022384   -2.105327
    140          8           0       -8.734831   -3.587038   -2.372512
    141          1           0       -6.226896   -4.034923   -1.433861
    142          8           0        0.175693    8.504853   -0.030988
    143          6           0       -0.107205    9.778960    0.544190
    144          8           0       -9.389781   -0.970459   -2.723370
    145          6           0       -9.776967   -1.386131   -4.036746
    146          8           0        1.648197   -7.082258   -2.769535
    147          6           0        2.076406   -8.446380   -2.802479
    148          8           0        8.407985    1.034281   -4.761755
    149          6           0        9.633221    0.653342   -4.139421
    150          1           0        0.563179   10.492092    0.057029
    151          1           0        0.087774    9.778384    1.624058
    152          1           0       -1.147495   10.075261    0.358166
    153          1           0       10.330447    0.422359   -4.949150
    154          1           0        9.499184   -0.237262   -3.512044
    155          1           0       10.041466    1.471963   -3.533077
    156          1           0        3.161834   -8.525772   -2.702432
    157          1           0        1.591307   -9.031996   -2.009339
    158          1           0        1.768259   -8.834342   -3.776585
    159          1           0       -9.096981   -0.976121   -4.795785
    160          1           0      -10.780085   -0.982473   -4.195593
    161          1           0       -9.801772   -2.475571   -4.118897
    162          6           0        8.040945    4.929167   -3.525919
    163          6           0        5.540073   -6.209097   -1.745486
    164          6           0       -8.472633   -4.951442   -2.083343
    165          6           0       -3.355156    7.564659   -1.894517
    166          1           0        6.140608   -6.685544   -2.522684
    167          1           0        5.702147   -5.123661   -1.775506
    168          1           0        5.846760   -6.590274   -0.762764
    169          1           0        8.883127    5.446561   -3.989602
    170          1           0        8.089101    5.059057   -2.436552
    171          1           0        7.102111    5.360929   -3.896736
    172          1           0       -3.458780    8.313156   -2.682721
    173          1           0       -4.230176    7.610046   -1.232498
    174          1           0       -3.301768    6.566261   -2.348466
    175          1           0       -8.243118   -5.099062   -1.020441
    176          1           0       -7.643229   -5.341827   -2.687689
    177          1           0       -9.387941   -5.490004   -2.336160
    178          6           0        5.811179   -1.905459   -3.571162
    179          6           0       -0.966989   -7.263326   -1.749002
    180          6           0       -8.065903    1.533997   -3.284573
    181          6           0        1.464675    6.538720    3.341749
    182          1           0       -2.044893   -7.279532   -1.570028
    183          1           0       -0.517172   -8.161017   -1.307074
    184          1           0       -0.764587   -7.244619   -2.821370
    185          1           0       -7.850470    2.605587   -3.290997
    186          1           0       -9.146090    1.372371   -3.273313
    187          1           0       -7.635384    1.076723   -4.184616
    188          1           0        2.407328    7.021024    3.601629
    189          1           0        1.649744    5.470906    3.173980
    190          1           0        0.738877    6.659283    4.156963
    191          1           0        6.168933   -2.807148   -4.072461
    192          1           0        4.803489   -1.664967   -3.933406
    193          1           0        5.767130   -2.085475   -2.488024
 ---------------------------------------------------------------------

 SCF Done:  E(RB3LYP) =  -4864.69079553     A.U. after   15 cycles

 The electronic state is 1-A.
 Alpha  occ. eigenvalues --  -19.17592 -19.17378 -19.17316 -19.16816 -19.16709
 Alpha  occ. eigenvalues --  -19.16461 -19.16243 -19.16199 -19.15965 -19.15780
 Alpha  occ. eigenvalues --  -19.15772 -19.15577 -19.15404 -19.15261 -19.13456
 Alpha  occ. eigenvalues --  -19.13132 -14.35533 -14.35021 -14.34793 -14.33853
 Alpha  occ. eigenvalues --  -10.24867 -10.24749 -10.24642 -10.24634 -10.24586
 Alpha  occ. eigenvalues --  -10.24479 -10.24394 -10.24102 -10.24093 -10.24013
 Alpha  occ. eigenvalues --  -10.23964 -10.23937 -10.23677 -10.23668 -10.23491
 Alpha  occ. eigenvalues --  -10.23375 -10.23243 -10.23241 -10.23165 -10.23144
 Alpha  occ. eigenvalues --  -10.23039 -10.23019 -10.22989 -10.22882 -10.22834
 Alpha  occ. eigenvalues --  -10.22722 -10.22682 -10.22613 -10.22567 -10.22531
 Alpha  occ. eigenvalues --  -10.22308 -10.22257 -10.22134 -10.22133 -10.22123
 Alpha  occ. eigenvalues --  -10.21658 -10.21640 -10.21637 -10.21590 -10.21477
 Alpha  occ. eigenvalues --  -10.21423 -10.21263 -10.20977 -10.20959 -10.20871
 Alpha  occ. eigenvalues --  -10.19233 -10.19185 -10.19152 -10.19031 -10.18962
 Alpha  occ. eigenvalues --  -10.18846 -10.18830 -10.18828 -10.18826 -10.18743
 Alpha  occ. eigenvalues --  -10.18644 -10.18563 -10.18516 -10.18491 -10.18475
 Alpha  occ. eigenvalues --  -10.18461 -10.18419 -10.18378 -10.18341 -10.18339
 Alpha  occ. eigenvalues --  -10.18309 -10.18281 -10.18211 -10.18186 -10.18153
 Alpha  occ. eigenvalues --  -10.18150 -10.18132 -10.18076 -10.18006 -10.18002
 Alpha  occ. eigenvalues --  -10.17986 -10.17902 -10.17815 -10.17614 -10.17446
 Alpha  occ. eigenvalues --  -10.17374 -10.17226 -10.17224 -10.17182 -10.17115
 Alpha  occ. eigenvalues --  -10.17001 -10.16977 -10.16499 -10.16405  -1.07636
 Alpha  occ. eigenvalues --   -1.07389  -1.06966  -1.06501  -1.06335  -1.06319
 Alpha  occ. eigenvalues --   -1.06074  -1.06046  -1.05835  -1.05619  -1.05370
 Alpha  occ. eigenvalues --   -1.04824  -1.04066  -1.03741  -1.02620  -1.02219
 Alpha  occ. eigenvalues --   -0.96313  -0.95833  -0.95607  -0.94838  -0.89785
 Alpha  occ. eigenvalues --   -0.86843  -0.85614  -0.85024  -0.84820  -0.84773
 Alpha  occ. eigenvalues --   -0.84495  -0.83918  -0.83602  -0.83458  -0.82428
 Alpha  occ. eigenvalues --   -0.82158  -0.80129  -0.78015  -0.76864  -0.76545
 Alpha  occ. eigenvalues --   -0.76194  -0.75903  -0.75792  -0.75605  -0.75468
 Alpha  occ. eigenvalues --   -0.75200  -0.75061  -0.74835  -0.74786  -0.74574
 Alpha  occ. eigenvalues --   -0.74329  -0.74251  -0.74049  -0.73975  -0.73833
 Alpha  occ. eigenvalues --   -0.73491  -0.72973  -0.72739  -0.71465  -0.71211
 Alpha  occ. eigenvalues --   -0.70930  -0.70705  -0.69955  -0.69853  -0.69504
 Alpha  occ. eigenvalues --   -0.69404  -0.69295  -0.68793  -0.68768  -0.68621
 Alpha  occ. eigenvalues --   -0.68214  -0.68145  -0.67858  -0.67006  -0.66718
 Alpha  occ. eigenvalues --   -0.65620  -0.65141  -0.63685  -0.62974  -0.62101
 Alpha  occ. eigenvalues --   -0.61887  -0.61491  -0.61117  -0.60711  -0.60234
 Alpha  occ. eigenvalues --   -0.60129  -0.59853  -0.59707  -0.59620  -0.59452
 Alpha  occ. eigenvalues --   -0.58990  -0.58691  -0.58394  -0.58256  -0.57998
 Alpha  occ. eigenvalues --   -0.57930  -0.57434  -0.56652  -0.56173  -0.56015
 Alpha  occ. eigenvalues --   -0.55385  -0.54391  -0.53909  -0.53700  -0.53602
 Alpha  occ. eigenvalues --   -0.53322  -0.53139  -0.52891  -0.52480  -0.52250
 Alpha  occ. eigenvalues --   -0.52054  -0.51529  -0.51247  -0.51206  -0.50846
 Alpha  occ. eigenvalues --   -0.50713  -0.50179  -0.50163  -0.49964  -0.49763
 Alpha  occ. eigenvalues --   -0.49405  -0.49350  -0.49307  -0.48972  -0.48822
 Alpha  occ. eigenvalues --   -0.48606  -0.48538  -0.48296  -0.47978  -0.47889
 Alpha  occ. eigenvalues --   -0.47713  -0.47589  -0.47554  -0.47445  -0.47183
 Alpha  occ. eigenvalues --   -0.47126  -0.46756  -0.46718  -0.46688  -0.46647
 Alpha  occ. eigenvalues --   -0.46633  -0.46449  -0.46238  -0.46141  -0.45861
 Alpha  occ. eigenvalues --   -0.45813  -0.45503  -0.45435  -0.45113  -0.44970
 Alpha  occ. eigenvalues --   -0.44831  -0.44610  -0.44525  -0.44385  -0.44217
 Alpha  occ. eigenvalues --   -0.44164  -0.43928  -0.43887  -0.43713  -0.43591
 Alpha  occ. eigenvalues --   -0.43519  -0.43502  -0.43413  -0.43324  -0.43294
 Alpha  occ. eigenvalues --   -0.43210  -0.43115  -0.43064  -0.42959  -0.42794
 Alpha  occ. eigenvalues --   -0.42574  -0.42442  -0.42242  -0.42166  -0.42129
 Alpha  occ. eigenvalues --   -0.42043  -0.41989  -0.41765  -0.41647  -0.41604
 Alpha  occ. eigenvalues --   -0.41293  -0.41236  -0.41186  -0.41111  -0.40941
 Alpha  occ. eigenvalues --   -0.40752  -0.40327  -0.40029  -0.39872  -0.39635
 Alpha  occ. eigenvalues --   -0.39357  -0.39126  -0.39079  -0.38662  -0.38530
 Alpha  occ. eigenvalues --   -0.38427  -0.38375  -0.38273  -0.38027  -0.37886
 Alpha  occ. eigenvalues --   -0.37662  -0.37575  -0.37409  -0.37220  -0.37136
 Alpha  occ. eigenvalues --   -0.36953  -0.36794  -0.36684  -0.36648  -0.36539
 Alpha  occ. eigenvalues --   -0.36422  -0.36140  -0.36002  -0.35850  -0.35608
 Alpha  occ. eigenvalues --   -0.35480  -0.35232  -0.35200  -0.35147  -0.34770
 Alpha  occ. eigenvalues --   -0.34716  -0.34406  -0.34108  -0.33941  -0.33844
 Alpha  occ. eigenvalues --   -0.33596  -0.33488  -0.33421  -0.33382  -0.33297
 Alpha  occ. eigenvalues --   -0.33198  -0.33103  -0.33048  -0.32997  -0.32712
 Alpha  occ. eigenvalues --   -0.32678  -0.32545  -0.32505  -0.32394  -0.32226
 Alpha  occ. eigenvalues --   -0.32063  -0.31930  -0.31755  -0.31586  -0.31479
 Alpha  occ. eigenvalues --   -0.31269  -0.31022  -0.30974  -0.30556  -0.30074
 Alpha  occ. eigenvalues --   -0.29289  -0.29141  -0.27287  -0.27113  -0.26712
 Alpha  occ. eigenvalues --   -0.26314  -0.26194  -0.25791  -0.25466  -0.25367
 Alpha  occ. eigenvalues --   -0.25126  -0.25094  -0.25021  -0.24685  -0.24493
 Alpha  occ. eigenvalues --   -0.24213  -0.24024  -0.23686  -0.22777  -0.22523
 Alpha  occ. eigenvalues --   -0.22250  -0.21830  -0.21692  -0.21641  -0.21355
 Alpha  occ. eigenvalues --   -0.21025  -0.20846  -0.20607  -0.17786  -0.17642
 Alpha  occ. eigenvalues --   -0.16445  -0.16313
 Alpha virt. eigenvalues --   -0.03502  -0.03204  -0.02086  -0.01920  -0.01202
 Alpha virt. eigenvalues --   -0.00951  -0.00720  -0.00455  -0.00085   0.00039
 Alpha virt. eigenvalues --    0.00189   0.00506   0.00900   0.01202   0.01306

 Mulliken atomic charges:
              1
     1  C   -0.302840
     2  C    0.104513
     3  C    0.052119
     4  C    0.042650
     5  C    0.097529
     6  C    0.107298
     7  C    0.045549
     8  C    0.042525
     9  C    0.090748
    10  C    0.029713
    11  C    0.068030
    12  C    0.075327
    13  C   -0.008476
    14  C   -0.010209
    15  C    0.059860
    16  C    0.084183
    17  C    0.019373
    18  C    0.056271
    19  C    0.016812
    20  C    0.100381
    21  C   -0.014134
    22  C   -0.010845
    23  C    0.068953
    24  C    0.072197
    25  C    0.018836
    26  N   -0.281341
    27  N   -0.280309
    28  N   -0.291659
    29  N   -0.280650
    30  C    0.061948
    31  C    0.066049
    32  C    0.030265
    33  C    0.071815
    34  C    0.037196
    35  C    0.079381
    36  C    0.025541
    37  C    0.073263
    38  C    0.046625
    39  C   -0.003864
    40  C    0.119257
    41  C    0.049700
    42  C    0.056772
    43  C    0.043976
    44  C   -0.004954
    45  C    0.123294
    46  C    0.034677
    47  C    0.045358
    48  C   -0.004268
    49  C    0.164815
    50  C    0.046811
    51  C    0.113205
    52  C    0.031123
    53  C   -0.006230
    54  C    0.162137
    55  C    0.041078
    56  C    0.127306
    57  C    0.036206
    58  C    0.006533
    59  C    0.169010
    60  C    0.024818
    61  C    0.159237
    62  C   -0.024790
    63  C    0.017485
    64  C   -0.005348
    65  C    0.114109
    66  C    0.045104
    67  C    0.051067
    68  C    0.050480
    69  C    0.042808
    70  C    0.110866
    71  C   -0.000405
    72  C    0.048147
    73  C   -0.017132
    74  C    0.162797
    75  C    0.026375
    76  C    0.163120
    77  C   -0.018093
    78  H   -0.048211
    79  H   -0.050396
    80  H   -0.050014
    81  H   -0.054179
    82  H   -0.054648
    83  H   -0.032972
    84  H   -0.053837
    85  H   -0.030788
    86  H   -0.054846
    87  H   -0.039181
    88  H   -0.039762
    89  H   -0.041278
    90  O   -0.284658
    91  C    0.130417
    92  O   -0.288254
    93  C    0.117681
    94  O   -0.281085
    95  O   -0.281315
    96  C    0.131435
    97  C    0.130374
    98  H   -0.029719
    99  H   -0.028996
   100  H   -0.031571
   101  H   -0.035995
   102  H   -0.034454
   103  H   -0.032446
   104  H   -0.026937
   105  H   -0.024162
   106  H   -0.036637
   107  H   -0.036586
   108  H   -0.003630
   109  H   -0.026960
   110  H   -0.025911
   111  H   -0.029394
   112  H   -0.037350
   113  H   -0.033210
   114  H    0.020393
   115  H    0.040889
   116  H    0.024385
   117  H    0.022350
   118  H    0.026209
   119  H    0.031384
   120  H    0.034166
   121  H    0.024335
   122  H    0.026218
   123  H    0.025669
   124  H    0.024510
   125  H    0.032731
   126  O   -0.280112
   127  H   -0.033385
   128  O   -0.292658
   129  H   -0.048930
   130  H   -0.033965
   131  O   -0.280292
   132  O   -0.280036
   133  H   -0.033615
   134  O   -0.291522
   135  H   -0.036202
   136  O   -0.302389
   137  H   -0.022429
   138  H   -0.024021
   139  O   -0.307332
   140  O   -0.292417
   141  H   -0.034861
   142  O   -0.287942
   143  C    0.149473
   144  O   -0.300343
   145  C    0.131500
   146  O   -0.300174
   147  C    0.131270
   148  O   -0.288018
   149  C    0.148940
   150  H    0.021705
   151  H    0.008966
   152  H    0.009113
   153  H    0.022506
   154  H    0.008162
   155  H    0.009677
   156  H    0.031387
   157  H    0.003469
   158  H    0.026684
   159  H    0.002884
   160  H    0.026181
   161  H    0.032536
   162  C    0.134159
   163  C    0.130369
   164  C    0.134414
   165  C    0.134544
   166  H    0.033392
   167  H    0.031174
   168  H    0.030624
   169  H    0.030392
   170  H    0.026164
   171  H    0.029414
   172  H    0.028984
   173  H    0.026900
   174  H    0.027446
   175  H    0.032316
   176  H    0.028686
   177  H    0.031896
   178  C    0.127635
   179  C    0.131811
   180  C    0.127309
   181  C    0.125458
   182  H    0.028726
   183  H    0.016282
   184  H    0.038652
   185  H    0.030348
   186  H    0.035319
   187  H    0.018361
   188  H    0.034104
   189  H    0.036170
   190  H    0.024016
   191  H    0.030462
   192  H    0.032940
   193  H    0.026889
 Sum of Mulliken atomic charges =   0.00000

 Dipole moment (field-independent basis, Debye):
    X=              0.7789    Y=             -7.9074    Z=              3.1551  Tot=              8.5491
 Quadrupole moment (field-independent basis, Debye-Ang):
   XX=           -573.5133   YY=           -561.1700   ZZ=           -599.1363
   XY=              9.6089   XZ=             51.4212   YZ=             -2.6078

 Normal termination of Gaussian 09 at Tue Feb  3 01:51:22 2015.
