 Gaussian 09, Revision A.02,
 Gaussian 09:  EM64L-G09RevA.02 11-Jun-2009

 -------------------
 #p sp B3LYP/cc-pVDZ
 -------------------

 ------------------------------------------
 Auto Spiro; and yes I said yes I will Yes.
 ------------------------------------------
 Symbolic Z-matrix:
 Charge =  0 Multiplicity = 1

                         Standard orientation:
 ---------------------------------------------------------------------
 Center     Atomic      Atomic             Coordinates (Angstroms)
 Number     Number       Type             X           Y           Z
 ---------------------------------------------------------------------
      1          6           0       -0.020812   -0.011012    0.254683
      2          6           0        0.536287   -1.043583    1.241990
      3          6           0        0.308444   -0.630940    2.569972
      4          6           0       -0.395979    0.652381    2.551170
      5          6           0       -0.595425    1.041096    1.211448
      6          6           0        1.025849    0.551375   -0.714579
      7          6           0        0.634624    0.327000   -2.049034
      8          6           0       -0.650907   -0.373411   -2.052427
      9          6           0       -1.054175   -0.588289   -0.720298
     10          6           0        2.217392    1.189445   -0.409139
     11          6           0        3.046144    1.639238   -1.455454
     12          6           0        2.648196    1.425371   -2.789783
     13          6           0        1.458330    0.766233   -3.088647
     14          6           0       -0.859681    1.475044    3.580255
     15          6           0       -1.503251    2.670385    3.266820
     16          6           0       -1.707915    3.056446    1.927914
     17          6           0       -1.245486    2.221462    0.891504
     18          6           0        1.194776   -2.228753    0.957699
     19          6           0        1.635977   -3.043612    2.018777
     20          6           0        1.401989   -2.633975    3.345719
     21          6           0        0.750610   -1.434370    3.623739
     22          6           0       -1.465341   -0.820505   -3.096141
     23          6           0       -2.656704   -1.479180   -2.803654
     24          6           0       -3.065123   -1.687241   -1.471067
     25          6           0       -2.246575   -1.227518   -0.420728
     26          7           0        4.266837    2.304481   -1.171819
     27          7           0       -2.376189    4.269948    1.624613
     28          7           0        2.311288   -4.263133    1.754156
     29          7           0       -4.284736   -2.354753   -1.194529
     30          6           0       -5.435623   -2.107208   -1.996289
     31          6           0        1.857066   -5.123471    0.715738
     32          6           0       -4.385156   -3.240399   -0.085935
     33          6           0        3.428246   -4.645505    2.547045
     34          6           0        4.348322    3.220355   -0.085585
     35          6           0        5.427677    2.032699   -1.946946
     36          6           0       -3.488060    4.686955    2.407224
     37          6           0       -1.901401    5.106485    0.574988
     38          6           0       -3.607959    6.011089    2.844651
     39          6           0       -4.711986    6.429128    3.591879
     40          6           0       -5.710483    5.511865    3.935453
     41          6           0       -5.593037    4.180087    3.510799
     42          6           0       -4.505386    3.777014    2.749560
     43          6           0        5.441667    3.205067    0.787443
     44          6           0        5.542831    4.120130    1.837751
     45          6           0        4.526720    5.057902    2.047150
     46          6           0        3.419277    5.070653    1.186000
     47          6           0        3.336322    4.173768    0.129978
     48          6           0        6.269095    3.080012   -2.360550
     49          6           0        7.418386    2.832952   -3.101217
     50          6           0        7.750769    1.510174   -3.471949
     51          6           0        6.900927    0.471600   -3.084510
     52          6           0        5.759957    0.726115   -2.319467
     53          6           0       -2.818886    5.698121   -0.316406
     54          6           0       -2.383474    6.531822   -1.340770
     55          6           0       -0.996390    6.773117   -1.513674
     56          6           0       -0.095714    6.173505   -0.637357
     57          6           0       -0.540076    5.355128    0.408952
     58          6           0        0.497961   -5.366826    0.522623
     59          6           0        0.073008   -6.209977   -0.511697
     60          6           0        0.989823   -6.840777   -1.348601
     61          6           0        2.373830   -6.606252   -1.147080
     62          6           0        2.790912   -5.746690   -0.136334
     63          6           0        4.427741   -3.721046    2.873416
     64          6           0        5.523414   -4.086627    3.658459
     65          6           0        5.649250   -5.404234    4.111777
     66          6           0        4.658957   -6.340104    3.779715
     67          6           0        3.560626   -5.964202    3.018960
     68          6           0       -3.377508   -4.187936    0.173780
     69          6           0       -3.480550   -5.057480    1.250706
     70          6           0       -4.603939   -5.022554    2.090475
     71          6           0       -5.616270   -4.091367    1.837195
     72          6           0       -5.495607   -3.204108    0.765044
     73          6           0       -5.794982   -0.811990   -2.364320
     74          6           0       -6.924478   -0.593745   -3.162811
     75          6           0       -7.723897   -1.653913   -3.581476
     76          6           0       -7.368350   -2.973184   -3.199533
     77          6           0       -6.230676   -3.187544   -2.429038
     78          1           0       -2.555753   -1.373023    0.609434
     79          1           0        1.375125   -2.534821   -0.068005
     80          1           0        1.735380   -3.270209    4.159214
     81          1           0        0.579049   -1.142558    4.656903
     82          1           0       -0.711351    1.201819    4.622068
     83          1           0       -1.852763    3.321196    4.061735
     84          1           0       -1.172834   -0.674585   -4.133046
     85          1           0       -3.286463   -1.841567   -3.609502
     86          1           0        1.173971    0.614517   -4.126964
     87          1           0        3.284551    1.783639   -3.592452
     88          1           0       -1.404279    2.508359   -0.143238
     89          1           0        2.517867    1.342949    0.622497
     90          8           0       -4.613567   -5.931346    3.112661
     91          6           0       -5.712568   -5.915625    4.007054
     92          8           0        6.684004   -5.874643    4.874176
     93          6           0        7.708021   -4.966292    5.239618
     94          8           0       -6.827469    5.807676    4.668989
     95          8           0        4.517811    5.992977    3.045248
     96          6           0        5.609109    6.012070    3.949012
     97          6           0       -6.988150    7.137716    5.129883
     98          1           0       -6.378179    3.479087    3.777152
     99          1           0       -4.432470    2.746928    2.414948
    100          1           0        6.230659    2.474245    0.640614
    101          1           0        6.410036    4.079574    2.487024
    102          1           0       -4.770263    7.464296    3.909138
    103          1           0       -2.830952    6.726293    2.593579
    104          1           0        2.638890    5.806142    1.357498
    105          1           0        2.477324    4.200032   -0.533390
    106          1           0       -6.280220   -2.476070    0.584452
    107          1           0       -6.494179   -4.032543    2.470706
    108          1           0       -2.703077   -5.787281    1.456445
    109          1           0       -2.505517   -4.230377   -0.471661
    110          1           0        6.273157   -3.339679    3.893976
    111          1           0        4.345241   -2.699694    2.514998
    112          1           0        4.763016   -7.357406    4.144584
    113          1           0        2.793097   -6.693811    2.780734
    114          1           0        7.316001   -4.132915    5.838486
    115          1           0        8.224635   -4.561312    4.358651
    116          1           0        8.417574   -5.538450    5.840601
    117          1           0        6.558487    6.213055    3.434096
    118          1           0        5.694363    5.066233    4.501077
    119          1           0        5.402962    6.821407    4.652136
    120          1           0       -7.928848    7.152798    5.683852
    121          1           0       -7.047762    7.851501    4.296810
    122          1           0       -6.169699    7.436797    5.798785
    123          1           0       -6.658943   -6.127904    3.490888
    124          1           0       -5.797203   -4.952182    4.527695
    125          1           0       -5.517166   -6.703267    4.737337
    126          8           0        3.209914   -7.256524   -2.006075
    127          1           0        3.844425   -5.545517    0.011313
    128          1           0       -0.989303   -6.383374   -0.642228
    129          1           0       -0.234287   -4.897364    1.170680
    130          1           0       -5.195371    0.030059   -2.035632
    131          1           0       -7.181142    0.422648   -3.438910
    132          8           0       -8.196345   -3.957573   -3.652180
    133          1           0       -5.940118   -4.191608   -2.146534
    134          8           0       -3.202454    7.149384   -2.239509
    135          1           0       -3.874013    5.491891   -0.188156
    136          1           0        0.968078    6.352092   -0.746732
    137          1           0        0.179226    4.908271    1.086898
    138          1           0        5.125538   -0.098703   -2.012539
    139          1           0        7.131806   -0.553504   -3.351742
    140          8           0        8.235212    3.894505   -3.411275
    141          1           0        6.044277    4.107434   -2.095670
    142          8           0        0.674374   -7.688060   -2.371639
    143          6           0       -0.696674   -7.948920   -2.610227
    144          8           0        8.909238    1.351099   -4.184199
    145          6           0        9.304776    0.032521   -4.521853
    146          8           0       -0.662290    7.594328   -2.551456
    147          6           0        0.712537    7.859168   -2.764849
    148          8           0       -8.850094   -1.541878   -4.345074
    149          6           0       -9.250644   -0.242811   -4.740722
    150          1           0       -0.727385   -8.631082   -3.462116
    151          1           0       -1.246724   -7.031184   -2.860185
    152          1           0       -1.175800   -8.428139   -1.745217
    153          1           0      -10.159642   -0.376797   -5.330394
    154          1           0       -8.486290    0.247061   -5.359742
    155          1           0       -9.471576    0.395617   -3.874129
    156          1           0        0.758434    8.518214   -3.634031
    157          1           0        1.167582    8.365306   -1.902278
    158          1           0        1.274810    6.939392   -2.976795
    159          1           0        8.570309   -0.457618   -5.175352
    160          1           0        9.455512   -0.584167   -3.625812
    161          1           0       10.252107    0.131277   -5.055307
    162          6           0       -7.896447   -5.294949   -3.292902
    163          6           0       -4.598619    6.942870   -2.116129
    164          6           0        8.324371    4.228892   -4.797519
    165          6           0        4.605082   -7.073806   -1.840448
    166          1           0       -5.058174    7.531031   -2.912868
    167          1           0       -4.865015    5.885120   -2.246431
    168          1           0       -4.975728    7.289076   -1.144319
    169          1           0       -8.683527   -5.906497   -3.738226
    170          1           0       -7.900901   -5.432646   -2.203252
    171          1           0       -6.922591   -5.612829   -3.689607
    172          1           0        5.079179   -7.693712   -2.603911
    173          1           0        4.941442   -7.398944   -0.846763
    174          1           0        4.897718   -6.025749   -1.991685
    175          1           0        7.332935    4.467920   -5.205816
    176          1           0        8.774649    3.418916   -5.379305
    177          1           0        8.959419    5.116354   -4.852590
 ---------------------------------------------------------------------

 SCF Done:  E(RB3LYP) =  -4406.60293509     A.U. after   15 cycles

 The electronic state is 1-A.
 Alpha  occ. eigenvalues --  -19.17154 -19.16635 -19.16633 -19.16621 -19.16568
 Alpha  occ. eigenvalues --  -19.16479 -19.16318 -19.16263 -19.16259 -19.16050
 Alpha  occ. eigenvalues --  -19.16040 -19.14786 -14.34917 -14.34801 -14.34660
 Alpha  occ. eigenvalues --  -14.34636 -10.24358 -10.24061 -10.24024 -10.24011
 Alpha  occ. eigenvalues --  -10.23997 -10.23994 -10.23957 -10.23950 -10.23933
 Alpha  occ. eigenvalues --  -10.23926 -10.23891 -10.23827 -10.23826 -10.23742
 Alpha  occ. eigenvalues --  -10.23718 -10.23638 -10.23548 -10.23544 -10.23432
 Alpha  occ. eigenvalues --  -10.23393 -10.23382 -10.23378 -10.23362 -10.22504
 Alpha  occ. eigenvalues --  -10.21957 -10.21921 -10.21918 -10.21809 -10.21799
 Alpha  occ. eigenvalues --  -10.21686 -10.21686 -10.21654 -10.21624 -10.21599
 Alpha  occ. eigenvalues --  -10.21517 -10.21488 -10.20377 -10.18726 -10.18515
 Alpha  occ. eigenvalues --  -10.18485 -10.18469 -10.18454 -10.18441 -10.18441
 Alpha  occ. eigenvalues --  -10.18407 -10.18398 -10.18394 -10.18390 -10.18369
 Alpha  occ. eigenvalues --  -10.18368 -10.18364 -10.18357 -10.18339 -10.18325
 Alpha  occ. eigenvalues --  -10.18296 -10.18201 -10.18184 -10.18136 -10.18133
 Alpha  occ. eigenvalues --  -10.18117 -10.18111 -10.18071 -10.18057 -10.18056
 Alpha  occ. eigenvalues --  -10.18024 -10.18006 -10.17976 -10.17965 -10.17883
 Alpha  occ. eigenvalues --  -10.17823 -10.17802 -10.17786 -10.17781 -10.17739
 Alpha  occ. eigenvalues --  -10.17732 -10.17672 -10.17663 -10.17630 -10.17625
 Alpha  occ. eigenvalues --  -10.17616 -10.17540 -10.17539 -10.17498 -10.17369
 Alpha  occ. eigenvalues --  -10.17360  -1.07125  -1.07044  -1.06880  -1.06879
 Alpha  occ. eigenvalues --   -1.06276  -1.06265  -1.06250  -1.06210  -1.05194
 Alpha  occ. eigenvalues --   -1.04947  -1.04941  -1.04061  -0.95663  -0.95567
 Alpha  occ. eigenvalues --   -0.95450  -0.95427  -0.89216  -0.86333  -0.85070
 Alpha  occ. eigenvalues --   -0.85020  -0.84918  -0.84884  -0.84523  -0.84341
 Alpha  occ. eigenvalues --   -0.83820  -0.83517  -0.82440  -0.82314  -0.79738
 Alpha  occ. eigenvalues --   -0.77685  -0.76496  -0.76269  -0.76213  -0.76121
 Alpha  occ. eigenvalues --   -0.76002  -0.75266  -0.75052  -0.74924  -0.74874
 Alpha  occ. eigenvalues --   -0.74797  -0.74665  -0.74464  -0.74299  -0.74142
 Alpha  occ. eigenvalues --   -0.74049  -0.73940  -0.73569  -0.73447  -0.73201
 Alpha  occ. eigenvalues --   -0.72942  -0.71063  -0.70660  -0.70298  -0.70154
 Alpha  occ. eigenvalues --   -0.70064  -0.69906  -0.69673  -0.69589  -0.69340
 Alpha  occ. eigenvalues --   -0.68462  -0.67643  -0.67513  -0.67300  -0.66638
 Alpha  occ. eigenvalues --   -0.66430  -0.63464  -0.62937  -0.62016  -0.61705
 Alpha  occ. eigenvalues --   -0.61422  -0.61189  -0.60811  -0.60645  -0.60418
 Alpha  occ. eigenvalues --   -0.60116  -0.59870  -0.59763  -0.59490  -0.59261
 Alpha  occ. eigenvalues --   -0.59147  -0.58757  -0.58644  -0.57980  -0.57649
 Alpha  occ. eigenvalues --   -0.57548  -0.56167  -0.55942  -0.55828  -0.55173
 Alpha  occ. eigenvalues --   -0.53935  -0.53822  -0.53760  -0.53550  -0.53283
 Alpha  occ. eigenvalues --   -0.53189  -0.53060  -0.52827  -0.52039  -0.51846
 Alpha  occ. eigenvalues --   -0.51588  -0.51397  -0.51166  -0.51117  -0.50957
 Alpha  occ. eigenvalues --   -0.49934  -0.49884  -0.49631  -0.49359  -0.49128
 Alpha  occ. eigenvalues --   -0.49046  -0.48634  -0.48380  -0.48281  -0.48186
 Alpha  occ. eigenvalues --   -0.48116  -0.47174  -0.47112  -0.47055  -0.46970
 Alpha  occ. eigenvalues --   -0.46853  -0.46726  -0.46716  -0.46621  -0.46555
 Alpha  occ. eigenvalues --   -0.46530  -0.46508  -0.46461  -0.45819  -0.45721
 Alpha  occ. eigenvalues --   -0.45588  -0.45471  -0.45448  -0.44807  -0.44700
 Alpha  occ. eigenvalues --   -0.44560  -0.44516  -0.44409  -0.44399  -0.44354
 Alpha  occ. eigenvalues --   -0.44330  -0.43977  -0.43471  -0.43309  -0.43258
 Alpha  occ. eigenvalues --   -0.43186  -0.43178  -0.43055  -0.42965  -0.42843
 Alpha  occ. eigenvalues --   -0.42742  -0.42524  -0.42347  -0.42200  -0.42097
 Alpha  occ. eigenvalues --   -0.42051  -0.41956  -0.41787  -0.41626  -0.41364
 Alpha  occ. eigenvalues --   -0.41333  -0.41248  -0.41146  -0.41088  -0.40940
 Alpha  occ. eigenvalues --   -0.40760  -0.40611  -0.40296  -0.40005  -0.39662
 Alpha  occ. eigenvalues --   -0.39445  -0.38857  -0.38768  -0.38592  -0.38432
 Alpha  occ. eigenvalues --   -0.38421  -0.38198  -0.38160  -0.37982  -0.37937
 Alpha  occ. eigenvalues --   -0.37755  -0.37666  -0.37629  -0.37614  -0.37541
 Alpha  occ. eigenvalues --   -0.36996  -0.36747  -0.36659  -0.36578  -0.36279
 Alpha  occ. eigenvalues --   -0.36236  -0.36063  -0.35901  -0.35777  -0.35703
 Alpha  occ. eigenvalues --   -0.35507  -0.35473  -0.35123  -0.34757  -0.34665
 Alpha  occ. eigenvalues --   -0.33802  -0.33473  -0.33325  -0.33197  -0.33048
 Alpha  occ. eigenvalues --   -0.32998  -0.32919  -0.32884  -0.32599  -0.32501
 Alpha  occ. eigenvalues --   -0.32449  -0.32403  -0.32357  -0.32314  -0.32300
 Alpha  occ. eigenvalues --   -0.32189  -0.32012  -0.32003  -0.31992  -0.31960
 Alpha  occ. eigenvalues --   -0.31855  -0.31750  -0.31728  -0.31658  -0.31651
 Alpha  occ. eigenvalues --   -0.31314  -0.29830  -0.29451  -0.27650  -0.27264
 Alpha  occ. eigenvalues --   -0.27147  -0.25875  -0.25614  -0.25426  -0.25300
 Alpha  occ. eigenvalues --   -0.25130  -0.24794  -0.24703  -0.24087  -0.23904
 Alpha  occ. eigenvalues --   -0.23845  -0.23707  -0.23502  -0.23376  -0.23197
 Alpha  occ. eigenvalues --   -0.22059  -0.21899  -0.21474  -0.20864  -0.20821
 Alpha  occ. eigenvalues --   -0.20436  -0.17552  -0.17252  -0.15918  -0.15730
 Alpha virt. eigenvalues --   -0.02779  -0.02679  -0.01844  -0.01616  -0.01282
 Alpha virt. eigenvalues --   -0.00915  -0.00135  -0.00017   0.00025   0.00172
 Alpha virt. eigenvalues --    0.00197   0.00281   0.00555   0.00860   0.01131

 Mulliken atomic charges:
              1
     1  C   -0.298851
     2  C    0.098461
     3  C    0.042459
     4  C    0.042646
     5  C    0.099145
     6  C    0.099224
     7  C    0.041873
     8  C    0.041074
     9  C    0.099409
    10  C    0.014297
    11  C    0.079437
    12  C    0.062046
    13  C   -0.010828
    14  C   -0.011925
    15  C    0.059193
    16  C    0.079495
    17  C    0.021285
    18  C    0.020262
    19  C    0.076906
    20  C    0.061973
    21  C   -0.011805
    22  C   -0.011453
    23  C    0.061896
    24  C    0.084801
    25  C    0.012369
    26  N   -0.279382
    27  N   -0.278387
    28  N   -0.278514
    29  N   -0.278490
    30  C    0.035769
    31  C    0.044712
    32  C    0.040132
    33  C    0.038427
    34  C    0.042467
    35  C    0.060419
    36  C    0.038688
    37  C    0.040682
    38  C    0.037088
    39  C   -0.004178
    40  C    0.117221
    41  C    0.048738
    42  C    0.052831
    43  C    0.043112
    44  C   -0.000650
    45  C    0.120382
    46  C    0.038347
    47  C    0.046513
    48  C    0.071909
    49  C    0.057796
    50  C    0.126937
    51  C    0.012044
    52  C    0.035193
    53  C    0.012224
    54  C    0.130752
    55  C    0.108022
    56  C    0.004284
    57  C    0.027125
    58  C    0.026067
    59  C    0.004636
    60  C    0.107597
    61  C    0.130812
    62  C    0.008518
    63  C    0.041657
    64  C   -0.003758
    65  C    0.117564
    66  C    0.047793
    67  C    0.047998
    68  C    0.046617
    69  C    0.038333
    70  C    0.119279
    71  C   -0.002606
    72  C    0.040767
    73  C    0.032280
    74  C    0.011720
    75  C    0.107607
    76  C    0.130465
    77  C    0.010564
    78  H   -0.040632
    79  H   -0.042891
    80  H   -0.035397
    81  H   -0.057182
    82  H   -0.057260
    83  H   -0.034729
    84  H   -0.057179
    85  H   -0.034344
    86  H   -0.056915
    87  H   -0.036203
    88  H   -0.042206
    89  H   -0.041359
    90  O   -0.280234
    91  C    0.131117
    92  O   -0.282906
    93  C    0.131172
    94  O   -0.282878
    95  O   -0.280317
    96  C    0.130941
    97  C    0.131379
    98  H   -0.032191
    99  H   -0.028149
   100  H   -0.031495
   101  H   -0.035965
   102  H   -0.035941
   103  H   -0.030667
   104  H   -0.026031
   105  H   -0.025598
   106  H   -0.031129
   107  H   -0.035791
   108  H   -0.025792
   109  H   -0.025620
   110  H   -0.035578
   111  H   -0.029266
   112  H   -0.032181
   113  H   -0.029260
   114  H    0.024947
   115  H    0.023641
   116  H    0.032058
   117  H    0.025205
   118  H    0.025082
   119  H    0.032326
   120  H    0.031990
   121  H    0.023500
   122  H    0.024935
   123  H    0.023192
   124  H    0.026335
   125  H    0.032830
   126  O   -0.272278
   127  H   -0.036367
   128  H   -0.034269
   129  H   -0.031222
   130  H   -0.035714
   131  H   -0.037047
   132  O   -0.271958
   133  H   -0.038203
   134  O   -0.272175
   135  H   -0.037337
   136  H   -0.033090
   137  H   -0.032214
   138  H   -0.031431
   139  H   -0.033941
   140  O   -0.297260
   141  H   -0.035317
   142  O   -0.271371
   143  C    0.132815
   144  O   -0.286672
   145  C    0.132565
   146  O   -0.271417
   147  C    0.132575
   148  O   -0.270728
   149  C    0.133046
   150  H    0.030148
   151  H    0.025926
   152  H    0.024092
   153  H    0.031971
   154  H    0.023598
   155  H    0.023024
   156  H    0.030246
   157  H    0.024688
   158  H    0.026879
   159  H    0.025741
   160  H    0.026790
   161  H    0.033311
   162  C    0.133076
   163  C    0.133435
   164  C    0.135307
   165  C    0.133269
   166  H    0.030863
   167  H    0.025693
   168  H    0.026819
   169  H    0.031799
   170  H    0.027494
   171  H    0.024935
   172  H    0.030771
   173  H    0.028242
   174  H    0.024566
   175  H    0.007944
   176  H    0.024955
   177  H    0.026553
 Sum of Mulliken atomic charges =   0.00000

 Dipole moment (field-independent basis, Debye):
    X=              0.5310    Y=              0.6401    Z=              0.6967  Tot=              1.0849
 Quadrupole moment (field-independent basis, Debye-Ang):
   XX=           -501.7699   YY=           -551.9446   ZZ=           -541.4774
   XY=             -9.1568   XZ=             -7.2977   YZ=             10.7855

 Normal termination of Gaussian 09 at Tue Feb  3 02:17:45 2015.
