 Gaussian 09, Revision A.02,
 Gaussian 09:  EM64L-G09RevA.02 11-Jun-2009

 -------------------
 #p sp B3LYP/cc-pVDZ
 -------------------

 ------------------------------------------
 Auto Spiro; and yes I said yes I will Yes.
 ------------------------------------------
 Symbolic Z-matrix:
 Charge =  0 Multiplicity = 1

                         Standard orientation:
 ---------------------------------------------------------------------
 Center     Atomic      Atomic             Coordinates (Angstroms)
 Number     Number       Type             X           Y           Z
 ---------------------------------------------------------------------
      1          6           0       -0.013749    0.092784   -0.242204
      2          6           0       -0.729903   -0.833780   -1.228218
      3          6           0       -0.455133   -0.457645   -2.556561
      4          6           0        0.458570    0.688742   -2.539112
      5          6           0        0.721541    1.036253   -1.200069
      6          6           0       -0.979303    0.767138    0.739183
      7          6           0       -0.618531    0.474165    2.069553
      8          6           0        0.580776   -0.367292    2.058321
      9          6           0        0.938202   -0.624252    0.720651
     10          6           0       -2.116330    1.500992    0.444125
     11          6           0       -2.928174    1.968288    1.496025
     12          6           0       -2.553889    1.697712    2.824864
     13          6           0       -1.413054    0.951751    3.113960
     14          6           0        1.085420    1.399377   -3.566706
     15          6           0        1.975585    2.423040   -3.249607
     16          6           0        2.269689    2.742234   -1.909338
     17          6           0        1.613541    2.046447   -0.877881
     18          6           0       -1.579287   -1.888601   -0.937291
     19          6           0       -2.167243   -2.609351   -1.989883
     20          6           0       -1.880550   -2.247368   -3.319079
     21          6           0       -1.038919   -1.173548   -3.605629
     22          6           0        1.351963   -0.912715    3.087314
     23          6           0        2.451018   -1.710916    2.774919
     24          6           0        2.806968   -1.966459    1.437851
     25          6           0        2.036906   -1.403541    0.402427
     26          7           0       -4.133822    2.666733    1.224578
     27          7           0        3.217008    3.749306   -1.596139
     28          7           0       -3.026817   -3.707670   -1.701827
     29          7           0        3.937698   -2.769631    1.138521
     30          6           0        5.088241   -2.679498    1.967406
     31          6           0       -2.655975   -4.575579   -0.634088
     32          6           0        3.929205   -3.682801    0.047727
     33          6           0       -4.311792   -3.825530   -2.285468
     34          6           0       -4.230202    3.607003    0.164313
     35          6           0       -5.262883    2.446469    2.060825
     36          6           0        4.455310    3.848501   -2.274322
     37          6           0        2.932246    4.651387   -0.531399
     38          6           0        5.120686    5.076599   -2.380501
     39          6           0        6.362238    5.180843   -3.013596
     40          6           0        6.960918    4.050802   -3.575584
     41          6           0        6.302437    2.817702   -3.480226
     42          6           0        5.078617    2.714825   -2.833769
     43          6           0       -5.436614    3.790716   -0.521354
     44          6           0       -5.555474    4.732293   -1.547838
     45          6           0       -4.450520    5.500496   -1.921470
     46          6           0       -3.237450    5.321249   -1.241963
     47          6           0       -3.130248    4.401621   -0.209588
     48          6           0       -5.792493    3.507298    2.843817
     49          6           0       -6.888804    3.308450    3.678476
     50          6           0       -7.463927    2.033159    3.780930
     51          6           0       -6.955234    0.969494    3.038771
     52          6           0       -5.869227    1.184735    2.178784
     53          6           0        3.466558    4.453120    0.753923
     54          6           0        3.194659    5.349834    1.799749
     55          6           0        2.363601    6.444780    1.549612
     56          6           0        1.807444    6.661673    0.283579
     57          6           0        2.097771    5.769610   -0.749157
     58          6           0       -1.584181   -5.469986   -0.768295
     59          6           0       -1.172102   -6.292326    0.288053
     60          6           0       -1.852543   -6.228590    1.503328
     61          6           0       -2.927040   -5.342811    1.672508
     62          6           0       -3.308812   -4.508293    0.624636
     63          6           0       -4.961950   -2.736392   -2.883840
     64          6           0       -6.224136   -2.874128   -3.467759
     65          6           0       -6.879650   -4.107943   -3.449675
     66          6           0       -6.247441   -5.198284   -2.839702
     67          6           0       -4.986662   -5.062486   -2.274775
     68          6           0        2.742516   -4.321928   -0.359466
     69          6           0        2.736732   -5.204066   -1.429603
     70          6           0        3.924990   -5.504817   -2.110894
     71          6           0        5.115089   -4.897909   -1.702963
     72          6           0        5.108326   -3.987582   -0.641251
     73          6           0        5.800142   -1.478065    2.115727
     74          6           0        6.912249   -1.378981    2.962583
     75          6           0        7.342186   -2.505705    3.660477
     76          6           0        6.660163   -3.724318    3.528492
     77          6           0        5.537858   -3.805212    2.708219
     78          1           0        2.305145   -1.582422   -0.633721
     79          1           0       -1.804230   -2.152993    0.090550
     80          1           0       -2.326757   -2.816316   -4.128923
     81          1           0       -0.832882   -0.912424   -4.640764
     82          1           0        0.886317    1.163217   -4.609322
     83          1           0        2.462754    2.983402   -4.040944
     84          1           0        1.096564   -0.735058    4.129339
     85          1           0        3.044479   -2.149671    3.570518
     86          1           0       -1.154282    0.745533    4.149821
     87          1           0       -3.176284    2.069111    3.632402
     88          1           0        1.844111    2.273318    0.157103
     89          1           0       -2.396066    1.694338   -0.586681
     90          8           0        3.813287   -6.397313   -3.147115
     91          6           0        4.982620   -6.708906   -3.879863
     92          8           0       -8.118016   -4.352159   -3.988955
     93          6           0       -8.788544   -3.274920   -4.614839
     94          8           0        8.169337    4.039131   -4.227187
     95          8           0       -4.447061    6.443805   -2.916926
     96          6           0       -5.645767    6.642240   -3.642884
     97          6           0        8.860136    5.266655   -4.357215
     98          1           0        6.776675    1.940769   -3.911037
     99          1           0        4.594715    1.746771   -2.762149
    100          1           0       -6.304452    3.200686   -0.244478
    101          1           0        6.839668    6.153035   -3.068392
    102          1           0        4.666654    5.967784   -1.961200
    103          1           0       -2.385829    5.928324   -1.533547
    104          1           0       -2.186954    4.294279    0.314724
    105          1           0        6.041134   -3.519376   -0.342890
    106          1           0        6.053020   -5.107713   -2.205236
    107          1           0        1.808140   -5.666863   -1.749476
    108          1           0        1.813084   -4.118490    0.160709
    109          1           0       -6.683590   -2.003543   -3.922975
    110          1           0       -4.480160   -1.765403   -2.901334
    111          1           0       -6.760345   -6.155350   -2.824420
    112          1           0       -4.518865   -5.923194   -1.808434
    113          1           0       -8.217140   -2.879329   -5.466295
    114          1           0       -8.989321   -2.455201   -3.910659
    115          1           0       -9.737409   -3.677573   -4.975774
    116          1           0       -6.463981    6.982356   -2.992692
    117          1           0       -5.961557    5.727450   -4.163341
    118          1           0       -5.428044    7.417714   -4.380314
    119          1           0        9.779669    5.040657   -4.901554
    120          1           0        9.116950    5.695920   -3.378370
    121          1           0        8.276510    6.004411   -4.925689
    122          1           0        5.748359   -7.178543   -3.246212
    123          1           0        5.414193   -5.817613   -4.356393
    124          1           0        4.675838   -7.416113   -4.653565
    125          1           0       -3.414130   -5.311899    2.638427
    126          8           0       -4.285999   -3.568209    0.726951
    127          1           0       -0.328883   -6.950223    0.121926
    128          8           0       -0.835506   -5.517760   -1.922128
    129          8           0        5.389766   -0.320013    1.497937
    130          1           0        7.407395   -0.419350    3.037063
    131          1           0        7.017594   -4.572282    4.098456
    132          8           0        4.792075   -4.933066    2.561531
    133          1           0        3.615701    5.186603    2.780911
    134          8           0        4.233489    3.340344    0.906555
    135          1           0        1.171105    7.525835    0.144322
    136          8           0        1.622969    5.901276   -2.017057
    137          8           0       -5.380352    0.078853    1.525373
    138          1           0       -7.368589   -0.029526    3.089089
    139          1           0       -7.303978    4.105439    4.281742
    140          8           0       -5.144803    4.696912    2.721715
    141          8           0       -1.550065   -6.986859    2.596878
    142          6           0       -0.444643   -7.872348    2.509569
    143          8           0       -8.522972    1.942174    4.638613
    144          6           0       -9.145810    0.677621    4.797857
    145          8           0        2.029074    7.375866    2.491703
    146          6           0        2.525849    7.214332    3.809541
    147          8           0        8.419258   -2.531975    4.500458
    148          6           0        9.156644   -1.333211    4.676211
    149          1           0       -0.371897   -8.356062    3.485584
    150          1           0        0.487615   -7.332474    2.299154
    151          1           0       -0.600005   -8.636790    1.736771
    152          1           0        9.961362   -1.575972    5.372859
    153          1           0        8.534742   -0.535559    5.103648
    154          1           0        9.588926   -0.982901    3.729666
    155          1           0        2.127109    8.052890    4.383807
    156          1           0        3.623273    7.248020    3.836215
    157          1           0        2.182961    6.272687    4.258189
    158          1           0       -9.573333    0.316417    3.853174
    159          1           0       -9.947894    0.828025    5.522971
    160          1           0       -8.442761   -0.072356    5.183509
    161          6           0        5.200600   -6.108296    3.241204
    162          6           0        4.706442    3.003804    2.206247
    163          1           0       -6.511138    4.843884   -2.048003
    164          6           0       -5.633141    5.812741    3.448078
    165          6           0       -4.888100   -3.353769    1.998919
    166          1           0       -5.519386   -2.472492    1.885752
    167          1           0       -4.130778   -3.150475    2.765606
    168          1           0       -5.492344   -4.218648    2.302092
    169          1           0        4.477859   -6.877229    2.962729
    170          1           0        5.185373   -5.970780    4.330542
    171          1           0        6.205161   -6.424412    2.931641
    172          1           0        5.177147    2.025207    2.107347
    173          1           0        3.879089    2.930849    2.923143
    174          1           0        5.437383    3.740134    2.566461
    175          1           0       -5.588789    5.639291    4.531387
    176          1           0       -6.664843    6.057209    3.163934
    177          1           0       -4.977923    6.645343    3.186565
    178          6           0        5.573529   -0.250001    0.078098
    179          6           0        0.761498    6.991053   -2.304474
    180          6           0       -5.522290    0.049995    0.099839
    181          6           0       -1.456635   -6.134875   -3.051346
    182          1           0        0.491984    6.886962   -3.356796
    183          1           0        1.264081    7.954945   -2.149363
    184          1           0       -0.148185    6.958295   -1.691122
    185          1           0       -0.720973   -6.094921   -3.857424
    186          1           0       -2.363664   -5.603864   -3.355350
    187          1           0       -1.702742   -7.183446   -2.834811
    188          1           0       -5.114041   -0.910193   -0.220609
    189          1           0       -6.582160    0.111542   -0.181521
    190          1           0       -4.969909    0.863133   -0.378722
    191          1           0        5.212060    0.735315   -0.221525
    192          1           0        5.002861   -1.025965   -0.440063
    193          1           0        6.637512   -0.345307   -0.176153
 ---------------------------------------------------------------------

 SCF Done:  E(RB3LYP) =  -4864.71043239     A.U. after   15 cycles

 The electronic state is 1-A.
 Alpha  occ. eigenvalues --  -19.17024 -19.16964 -19.16952 -19.16905 -19.16793
 Alpha  occ. eigenvalues --  -19.16667 -19.16604 -19.16505 -19.16472 -19.16023
 Alpha  occ. eigenvalues --  -19.15693 -19.15454 -19.15398 -19.15087 -19.15022
 Alpha  occ. eigenvalues --  -19.14847 -14.34504 -14.34306 -14.34183 -14.33414
 Alpha  occ. eigenvalues --  -10.24728 -10.24662 -10.24657 -10.24586 -10.24552
 Alpha  occ. eigenvalues --  -10.24389 -10.24385 -10.24340 -10.24226 -10.24158
 Alpha  occ. eigenvalues --  -10.24116 -10.24040 -10.23953 -10.23944 -10.23932
 Alpha  occ. eigenvalues --  -10.23814 -10.23744 -10.23612 -10.23563 -10.23452
 Alpha  occ. eigenvalues --  -10.23328 -10.23102 -10.23097 -10.23070 -10.22827
 Alpha  occ. eigenvalues --  -10.22740 -10.22723 -10.22489 -10.22388 -10.22361
 Alpha  occ. eigenvalues --  -10.22032 -10.21936 -10.21284 -10.21210 -10.21155
 Alpha  occ. eigenvalues --  -10.21136 -10.21064 -10.21010 -10.20927 -10.20810
 Alpha  occ. eigenvalues --  -10.20718 -10.20599 -10.20564 -10.19905 -10.19578
 Alpha  occ. eigenvalues --  -10.17836 -10.17700 -10.17698 -10.17660 -10.17648
 Alpha  occ. eigenvalues --  -10.17634 -10.17594 -10.17567 -10.17554 -10.17513
 Alpha  occ. eigenvalues --  -10.17507 -10.17492 -10.17469 -10.17448 -10.17447
 Alpha  occ. eigenvalues --  -10.17421 -10.17375 -10.17372 -10.17316 -10.17314
 Alpha  occ. eigenvalues --  -10.17305 -10.17284 -10.17275 -10.17242 -10.17207
 Alpha  occ. eigenvalues --  -10.17201 -10.17199 -10.17162 -10.17160 -10.17081
 Alpha  occ. eigenvalues --  -10.17033 -10.17004 -10.16977 -10.16957 -10.16932
 Alpha  occ. eigenvalues --  -10.16924 -10.16892 -10.16843 -10.16832 -10.16831
 Alpha  occ. eigenvalues --  -10.16753 -10.16724 -10.16553 -10.16536  -1.06887
 Alpha  occ. eigenvalues --   -1.06842  -1.06637  -1.06580  -1.06555  -1.06412
 Alpha  occ. eigenvalues --   -1.06308  -1.06209  -1.06054  -1.05612  -1.05281
 Alpha  occ. eigenvalues --   -1.05043  -1.04979  -1.04621  -1.04557  -1.04491
 Alpha  occ. eigenvalues --   -0.94855  -0.94633  -0.94577  -0.94090  -0.88519
 Alpha  occ. eigenvalues --   -0.85614  -0.84667  -0.84509  -0.84362  -0.84268
 Alpha  occ. eigenvalues --   -0.83860  -0.83673  -0.83196  -0.82950  -0.81893
 Alpha  occ. eigenvalues --   -0.81739  -0.79092  -0.77172  -0.76247  -0.76081
 Alpha  occ. eigenvalues --   -0.75907  -0.75692  -0.75496  -0.75407  -0.75293
 Alpha  occ. eigenvalues --   -0.75091  -0.75024  -0.74450  -0.74097  -0.73855
 Alpha  occ. eigenvalues --   -0.73795  -0.73443  -0.73261  -0.73168  -0.72967
 Alpha  occ. eigenvalues --   -0.72796  -0.72689  -0.72342  -0.71145  -0.70501
 Alpha  occ. eigenvalues --   -0.70294  -0.70163  -0.70107  -0.69719  -0.69688
 Alpha  occ. eigenvalues --   -0.69676  -0.69486  -0.69352  -0.68471  -0.68439
 Alpha  occ. eigenvalues --   -0.68227  -0.68207  -0.67299  -0.66839  -0.66784
 Alpha  occ. eigenvalues --   -0.65753  -0.65472  -0.62663  -0.61994  -0.61192
 Alpha  occ. eigenvalues --   -0.60850  -0.60529  -0.60173  -0.59618  -0.59515
 Alpha  occ. eigenvalues --   -0.59407  -0.59198  -0.59095  -0.58983  -0.58763
 Alpha  occ. eigenvalues --   -0.58630  -0.58451  -0.58200  -0.58092  -0.57385
 Alpha  occ. eigenvalues --   -0.57174  -0.56786  -0.56058  -0.55573  -0.55469
 Alpha  occ. eigenvalues --   -0.54847  -0.54022  -0.53826  -0.53700  -0.53510
 Alpha  occ. eigenvalues --   -0.52866  -0.52565  -0.52438  -0.52189  -0.51687
 Alpha  occ. eigenvalues --   -0.51561  -0.51451  -0.51341  -0.51326  -0.51082
 Alpha  occ. eigenvalues --   -0.51035  -0.50489  -0.50430  -0.49988  -0.49827
 Alpha  occ. eigenvalues --   -0.49066  -0.49030  -0.48961  -0.48848  -0.48574
 Alpha  occ. eigenvalues --   -0.48448  -0.48376  -0.48085  -0.47950  -0.47878
 Alpha  occ. eigenvalues --   -0.47749  -0.47020  -0.46974  -0.46863  -0.46755
 Alpha  occ. eigenvalues --   -0.46618  -0.46526  -0.46469  -0.46462  -0.46401
 Alpha  occ. eigenvalues --   -0.46108  -0.46036  -0.45968  -0.45843  -0.45815
 Alpha  occ. eigenvalues --   -0.45755  -0.45740  -0.45539  -0.45485  -0.45424
 Alpha  occ. eigenvalues --   -0.44883  -0.44769  -0.44708  -0.44349  -0.44083
 Alpha  occ. eigenvalues --   -0.44019  -0.43737  -0.43724  -0.43557  -0.43481
 Alpha  occ. eigenvalues --   -0.43407  -0.43252  -0.43222  -0.43139  -0.43037
 Alpha  occ. eigenvalues --   -0.42621  -0.42536  -0.42254  -0.42224  -0.42089
 Alpha  occ. eigenvalues --   -0.41771  -0.41677  -0.41497  -0.41448  -0.41252
 Alpha  occ. eigenvalues --   -0.41112  -0.40989  -0.40887  -0.40837  -0.40784
 Alpha  occ. eigenvalues --   -0.40718  -0.40615  -0.40455  -0.40409  -0.40220
 Alpha  occ. eigenvalues --   -0.40017  -0.39935  -0.39815  -0.39614  -0.39014
 Alpha  occ. eigenvalues --   -0.38915  -0.38760  -0.38592  -0.38546  -0.38399
 Alpha  occ. eigenvalues --   -0.38196  -0.38121  -0.38044  -0.37918  -0.37769
 Alpha  occ. eigenvalues --   -0.37727  -0.37566  -0.37375  -0.37151  -0.37102
 Alpha  occ. eigenvalues --   -0.36988  -0.36649  -0.36472  -0.35731  -0.35594
 Alpha  occ. eigenvalues --   -0.35370  -0.35221  -0.35033  -0.34882  -0.34819
 Alpha  occ. eigenvalues --   -0.34678  -0.34533  -0.34489  -0.34465  -0.34351
 Alpha  occ. eigenvalues --   -0.34281  -0.34222  -0.34067  -0.34007  -0.33911
 Alpha  occ. eigenvalues --   -0.33838  -0.33766  -0.33740  -0.33592  -0.33472
 Alpha  occ. eigenvalues --   -0.33259  -0.33200  -0.33040  -0.32898  -0.32755
 Alpha  occ. eigenvalues --   -0.32543  -0.32300  -0.32197  -0.31954  -0.31872
 Alpha  occ. eigenvalues --   -0.31808  -0.31677  -0.31492  -0.31448  -0.31214
 Alpha  occ. eigenvalues --   -0.31056  -0.30629  -0.29488  -0.29234  -0.28890
 Alpha  occ. eigenvalues --   -0.28871  -0.28450  -0.27044  -0.27008  -0.26888
 Alpha  occ. eigenvalues --   -0.26800  -0.26718  -0.26300  -0.25001  -0.24619
 Alpha  occ. eigenvalues --   -0.24238  -0.24189  -0.24094  -0.23705  -0.23628
 Alpha  occ. eigenvalues --   -0.23202  -0.23006  -0.22476  -0.22368  -0.22331
 Alpha  occ. eigenvalues --   -0.22079  -0.21734  -0.21564  -0.21548  -0.21261
 Alpha  occ. eigenvalues --   -0.20962  -0.20682  -0.20332  -0.17262  -0.17109
 Alpha  occ. eigenvalues --   -0.15607  -0.15472
 Alpha virt. eigenvalues --   -0.01937  -0.01827  -0.00837  -0.00653  -0.00267
 Alpha virt. eigenvalues --    0.00105   0.00301   0.00460   0.00586   0.00922
 Alpha virt. eigenvalues --    0.00956   0.01251   0.01420   0.01558   0.01691

 Mulliken atomic charges:
              1
     1  C   -0.292341
     2  C    0.090019
     3  C    0.045308
     4  C    0.040496
     5  C    0.091447
     6  C    0.095480
     7  C    0.042497
     8  C    0.042649
     9  C    0.095287
    10  C    0.011645
    11  C    0.111161
    12  C    0.064570
    13  C   -0.017310
    14  C   -0.013551
    15  C    0.069358
    16  C    0.095486
    17  C    0.038215
    18  C    0.038422
    19  C    0.099531
    20  C    0.069596
    21  C   -0.014507
    22  C   -0.019584
    23  C    0.065557
    24  C    0.113457
    25  C    0.012288
    26  N   -0.278727
    27  N   -0.278050
    28  N   -0.283543
    29  N   -0.279760
    30  C    0.012825
    31  C   -0.008206
    32  C    0.102332
    33  C    0.119983
    34  C    0.098709
    35  C    0.004131
    36  C    0.103133
    37  C   -0.036784
    38  C    0.031388
    39  C   -0.008226
    40  C    0.114475
    41  C    0.041382
    42  C    0.026468
    43  C    0.023322
    44  C   -0.007883
    45  C    0.112347
    46  C    0.054033
    47  C    0.030568
    48  C    0.156551
    49  C   -0.013456
    50  C    0.137719
    51  C    0.001667
    52  C    0.087220
    53  C    0.178724
    54  C   -0.071459
    55  C    0.134761
    56  C   -0.025995
    57  C    0.174682
    58  C    0.091408
    59  C    0.003913
    60  C    0.141591
    61  C   -0.013645
    62  C    0.171892
    63  C   -0.006850
    64  C   -0.009533
    65  C    0.113997
    66  C    0.041915
    67  C    0.032375
    68  C    0.016029
    69  C    0.046586
    70  C    0.114736
    71  C   -0.008811
    72  C    0.019966
    73  C    0.088252
    74  C    0.004142
    75  C    0.136730
    76  C   -0.013226
    77  C    0.153248
    78  H   -0.037354
    79  H   -0.047985
    80  H   -0.042499
    81  H   -0.058721
    82  H   -0.059320
    83  H   -0.035959
    84  H   -0.062847
    85  H   -0.041163
    86  H   -0.062298
    87  H   -0.040147
    88  H   -0.052222
    89  H   -0.039657
    90  O   -0.284618
    91  C    0.134126
    92  O   -0.287026
    93  C    0.134009
    94  O   -0.287433
    95  O   -0.284998
    96  C    0.133655
    97  C    0.134395
    98  H   -0.038861
    99  H   -0.019411
   100  H   -0.040637
   101  H   -0.043526
   102  H   -0.036183
   103  H   -0.041077
   104  H   -0.020505
   105  H   -0.041047
   106  H   -0.042706
   107  H   -0.027543
   108  H   -0.016545
   109  H   -0.041153
   110  H   -0.019964
   111  H   -0.037913
   112  H   -0.034387
   113  H    0.021508
   114  H    0.020155
   115  H    0.028408
   116  H    0.021240
   117  H    0.022721
   118  H    0.029067
   119  H    0.027411
   120  H    0.020025
   121  H    0.020817
   122  H    0.019179
   123  H    0.022306
   124  H    0.027570
   125  H   -0.036830
   126  O   -0.279432
   127  H   -0.042197
   128  O   -0.302987
   129  O   -0.309072
   130  H   -0.048456
   131  H   -0.038842
   132  O   -0.270776
   133  H   -0.049810
   134  O   -0.278668
   135  H   -0.040668
   136  O   -0.270783
   137  O   -0.305442
   138  H   -0.047715
   139  H   -0.038665
   140  O   -0.271655
   141  O   -0.281700
   142  C    0.131865
   143  O   -0.282689
   144  C    0.134988
   145  O   -0.283214
   146  C    0.136065
   147  O   -0.282748
   148  C    0.135206
   149  H    0.030059
   150  H    0.034795
   151  H    0.026342
   152  H    0.031530
   153  H    0.026653
   154  H    0.027417
   155  H    0.031297
   156  H    0.025158
   157  H    0.028216
   158  H    0.026887
   159  H    0.031811
   160  H    0.027726
   161  C    0.136686
   162  C    0.118886
   163  H   -0.041628
   164  C    0.136491
   165  C    0.125330
   166  H    0.044743
   167  H    0.032231
   168  H    0.022663
   169  H    0.034336
   170  H    0.025497
   171  H    0.028363
   172  H    0.049304
   173  H    0.027904
   174  H    0.018730
   175  H    0.025615
   176  H    0.027644
   177  H    0.037291
   178  C    0.108456
   179  C    0.121214
   180  C    0.105806
   181  C    0.127244
   182  H    0.036688
   183  H    0.024443
   184  H    0.046318
   185  H    0.034649
   186  H    0.043313
   187  H    0.008623
   188  H    0.056761
   189  H    0.007653
   190  H    0.047445
   191  H    0.055023
   192  H    0.047450
   193  H    0.010054
 Sum of Mulliken atomic charges =   0.00000

 Dipole moment (field-independent basis, Debye):
    X=             -0.2207    Y=              1.6309    Z=              3.6707  Tot=              4.0228
 Quadrupole moment (field-independent basis, Debye-Ang):
   XX=           -543.6414   YY=           -564.2688   ZZ=           -581.3913
   XY=            -18.6140   XZ=             14.6367   YZ=             -1.5721

 Normal termination of Gaussian 09 at Tue Feb  3 02:53:37 2015.
